srun -n 64 -c 1 --unbuffered --hint=nomultithread ../../../../q-e/PW/src/pw.x -i pw.in -ndiag 16 -npool 4

     Program PWSCF v.6.1 starts on 22Sep2017 at 10: 4:49 

     This program is part of the open-source Quantum ESPRESSO suite
     for quantum simulation of materials; please cite
         "P. Giannozzi et al., J. Phys.:Condens. Matter 21 395502 (2009);
          URL http://www.quantum-espresso.org", 
     in publications or presentations arising from this work. More details at
     http://www.quantum-espresso.org/quote

     Parallel version (MPI & OpenMP), running on    2304 processor cores
     Number of MPI processes:               576
     Threads/MPI process:                     4
     R & G space division:  proc/nbgrp/npool/nimage =     576
     Reading input from pw.in
Warning: card &IONS ignored
Warning: card ION_DYNAMICS='BFGS', ignored
Warning: card / ignored
Warning: card &CELL ignored
Warning: card CELL_DYNAMICS='BFGS', ignored
Warning: card / ignored
     Message from routine read_cards :
     DEPRECATED: no units specified in CELL_PARAMETERS card
SIRIUS 4.8, git hash: 551de771a30cd15b2939e16597f7a14067616a3f

     Current dimensions of program PWSCF are:
     Max number of different atomic species (ntypx) = 10
     Max number of k-points (npk) =  40000
     Max angular momentum in pseudopotentials (lmaxx) =  3

     Subspace diagonalization in iterative solution of the eigenvalue problem:
     one sub-group per band group will be used
     custom distributed-memory algorithm (size of sub-group: 24* 24 procs)


   Info: using nr1, nr2, nr3 values from input
     Found symmetry operation: I + (  0.0000  0.0000  0.1250)
     This is a supercell, fractional translations are disabled
