srun -n 16 -c 4 --unbuffered --hint=nomultithread ../../../../q-e/PW/src/pw.x -i pw.in -ndiag 16 -npool 1

     Program PWSCF v.6.1 starts on 22Sep2017 at 10:21:48 

     This program is part of the open-source Quantum ESPRESSO suite
     for quantum simulation of materials; please cite
         "P. Giannozzi et al., J. Phys.:Condens. Matter 21 395502 (2009);
          URL http://www.quantum-espresso.org", 
     in publications or presentations arising from this work. More details at
     http://www.quantum-espresso.org/quote

     Parallel version (MPI & OpenMP), running on      64 processor cores
     Number of MPI processes:                16
     Threads/MPI process:                     4
     R & G space division:  proc/nbgrp/npool/nimage =      16
     Reading input from pw.in
     Message from routine read_cards :
     DEPRECATED: no units specified in CELL_PARAMETERS card
SIRIUS 4.8, git hash: 551de771a30cd15b2939e16597f7a14067616a3f

     Current dimensions of program PWSCF are:
     Max number of different atomic species (ntypx) = 10
     Max number of k-points (npk) =  40000
     Max angular momentum in pseudopotentials (lmaxx) =  3

     Subspace diagonalization in iterative solution of the eigenvalue problem:
     one sub-group per band group will be used
     custom distributed-memory algorithm (size of sub-group:  4*  4 procs)


   Info: using nr1, nr2, nr3 values from input

     Parallelization info
     --------------------
     sticks:   dense  smooth     PW     G-vecs:    dense   smooth      PW
     Min         839     168     42                73017     6525     820
     Max         840     170     43                73020     6527     823
     Sum       13429    2701    673              1168287   104415   13133



     bravais-lattice index     =            0
     lattice parameter (alat)  =       1.0000  a.u.
     unit-cell volume          =    8646.7719 (a.u.)^3
     number of atoms/cell      =           64
     number of atomic types    =            2
     number of electrons       =       266.00
     number of Kohn-Sham states=          160
     kinetic-energy cutoff     =      20.0000  Ry
     charge density cutoff     =     400.0000  Ry
     convergence threshold     =      1.0E-11
     mixing beta               =       0.7000
     number of iterations used =            8  plain     mixing
     Exchange-correlation      = SLA  PZ   NOGX NOGC ( 1  1  0  0 0 0)

     celldm(1)=   1.000000  celldm(2)=   0.000000  celldm(3)=   0.000000
     celldm(4)=   0.000000  celldm(5)=   0.000000  celldm(6)=   0.000000

     crystal axes: (cart. coord. in units of alat)
               a(1) = (  20.525071   0.000000   0.000000 )  
               a(2) = (   0.000000  20.525071   0.000000 )  
               a(3) = (   0.000000   0.000000  20.525071 )  

     reciprocal axes: (cart. coord. in units 2 pi/alat)
               b(1) = (  0.048721  0.000000  0.000000 )  
               b(2) = (  0.000000  0.048721  0.000000 )  
               b(3) = (  0.000000  0.000000  0.048721 )  


     PseudoPot. # 1 for Ge read from file:
     ./ge_lda_v1.4.uspp.F.UPF
     MD5 check sum: bf9d52b59cc8a669818bb2b52e0c2ba0
     Pseudo is Ultrasoft + core correction, Zval = 14.0
     Generated by new atomic code, or converted to UPF format
     Using radial grid of  873 points,  6 beta functions with: 
                l(1) =   0
                l(2) =   0
                l(3) =   1
                l(4) =   1
                l(5) =   2
                l(6) =   2
     Q(r) pseudized with  8 coefficients,  rinner =    1.400   1.400   1.400
                                                       1.400   1.400

     PseudoPot. # 2 for Si read from file:
     ./si_lda_v1.uspp.F.UPF
     MD5 check sum: b5ade7b37ee992b02096e360e546dc2d
     Pseudo is Ultrasoft + core correction, Zval =  4.0
     Generated by new atomic code, or converted to UPF format
     Using radial grid of  899 points,  6 beta functions with: 
                l(1) =   0
                l(2) =   0
                l(3) =   1
                l(4) =   1
                l(5) =   2
                l(6) =   2
     Q(r) pseudized with  8 coefficients,  rinner =    0.900   0.900   0.900
                                                       0.900   0.900

     atomic species   valence    mass     pseudopotential
        Ge            14.00    72.61000     Ge( 1.00)
        Si             4.00    28.08550     Si( 1.00)

     24 Sym. Ops. (no inversion) found



   Cartesian axes

     site n.     atom                  positions (a.u.)
         1           Ge  tau(   1) = (   0.0000000   0.0000000   0.0000000  )
         2           Si  tau(   2) = (   0.0000000   0.0000000  10.2625355  )
         3           Si  tau(   3) = (   0.0000000  10.2625355   0.0000000  )
         4           Si  tau(   4) = (   0.0000000  10.2625355  10.2625355  )
         5           Si  tau(   5) = (  10.2625355   0.0000000   0.0000000  )
         6           Si  tau(   6) = (  10.2625355   0.0000000  10.2625355  )
         7           Si  tau(   7) = (  10.2625355  10.2625355   0.0000000  )
         8           Si  tau(   8) = (  10.2625355  10.2625355  10.2625355  )
         9           Si  tau(   9) = (   0.0000000   5.1312678   5.1312678  )
        10           Si  tau(  10) = (   0.0000000   5.1312678  15.3938033  )
        11           Si  tau(  11) = (   0.0000000  15.3938033   5.1312678  )
        12           Si  tau(  12) = (   0.0000000  15.3938033  15.3938033  )
        13           Si  tau(  13) = (  10.2625355   5.1312678   5.1312678  )
        14           Si  tau(  14) = (  10.2625355   5.1312678  15.3938033  )
        15           Si  tau(  15) = (  10.2625355  15.3938033   5.1312678  )
        16           Si  tau(  16) = (  10.2625355  15.3938033  15.3938033  )
        17           Si  tau(  17) = (   5.1312678   0.0000000   5.1312678  )
        18           Si  tau(  18) = (   5.1312678   0.0000000  15.3938033  )
        19           Si  tau(  19) = (   5.1312678  10.2625355   5.1312678  )
        20           Si  tau(  20) = (   5.1312678  10.2625355  15.3938033  )
        21           Si  tau(  21) = (  15.3938033   0.0000000   5.1312678  )
        22           Si  tau(  22) = (  15.3938033   0.0000000  15.3938033  )
        23           Si  tau(  23) = (  15.3938033  10.2625355   5.1312678  )
        24           Si  tau(  24) = (  15.3938033  10.2625355  15.3938033  )
        25           Si  tau(  25) = (   5.1312678   5.1312678   0.0000000  )
        26           Si  tau(  26) = (   5.1312678   5.1312678  10.2625355  )
        27           Si  tau(  27) = (   5.1312678  15.3938033   0.0000000  )
        28           Si  tau(  28) = (   5.1312678  15.3938033  10.2625355  )
        29           Si  tau(  29) = (  15.3938033   5.1312678   0.0000000  )
        30           Si  tau(  30) = (  15.3938033   5.1312678  10.2625355  )
        31           Si  tau(  31) = (  15.3938033  15.3938033   0.0000000  )
        32           Si  tau(  32) = (  15.3938033  15.3938033  10.2625355  )
        33           Si  tau(  33) = (   7.6969016   7.6969016   2.5656339  )
        34           Si  tau(  34) = (   7.6969016   7.6969016  12.8281694  )
        35           Si  tau(  35) = (   7.6969016  17.9594371   2.5656339  )
        36           Si  tau(  36) = (   7.6969016  17.9594371  12.8281694  )
        37           Si  tau(  37) = (  17.9594371   7.6969016   2.5656339  )
        38           Si  tau(  38) = (  17.9594371   7.6969016  12.8281694  )
        39           Si  tau(  39) = (  17.9594371  17.9594371   2.5656339  )
        40           Si  tau(  40) = (  17.9594371  17.9594371  12.8281694  )
        41           Si  tau(  41) = (   7.6969016   2.5656339   7.6969016  )
        42           Si  tau(  42) = (   7.6969016   2.5656339  17.9594371  )
        43           Si  tau(  43) = (   7.6969016  12.8281694   7.6969016  )
        44           Si  tau(  44) = (   7.6969016  12.8281694  17.9594371  )
        45           Si  tau(  45) = (  17.9594371   2.5656339   7.6969016  )
        46           Si  tau(  46) = (  17.9594371   2.5656339  17.9594371  )
        47           Si  tau(  47) = (  17.9594371  12.8281694   7.6969016  )
        48           Si  tau(  48) = (  17.9594371  12.8281694  17.9594371  )
        49           Si  tau(  49) = (   2.5656339   7.6969016   7.6969016  )
        50           Si  tau(  50) = (   2.5656339   7.6969016  17.9594371  )
        51           Si  tau(  51) = (   2.5656339  17.9594371   7.6969016  )
        52           Si  tau(  52) = (   2.5656339  17.9594371  17.9594371  )
        53           Si  tau(  53) = (  12.8281694   7.6969016   7.6969016  )
        54           Si  tau(  54) = (  12.8281694   7.6969016  17.9594371  )
        55           Si  tau(  55) = (  12.8281694  17.9594371   7.6969016  )
        56           Si  tau(  56) = (  12.8281694  17.9594371  17.9594371  )
        57           Si  tau(  57) = (   2.5656339   2.5656339   2.5656339  )
        58           Si  tau(  58) = (   2.5656339   2.5656339  12.8281694  )
        59           Si  tau(  59) = (   2.5656339  12.8281694   2.5656339  )
        60           Si  tau(  60) = (   2.5656339  12.8281694  12.8281694  )
        61           Si  tau(  61) = (  12.8281694   2.5656339   2.5656339  )
        62           Si  tau(  62) = (  12.8281694   2.5656339  12.8281694  )
        63           Si  tau(  63) = (  12.8281694  12.8281694   2.5656339  )
        64           Si  tau(  64) = (  12.8281694  12.8281694  12.8281694  )

     number of k points=     1  gaussian smearing, width (Ry)=  0.0010
                       cart. coord. in units 2pi/alat
        k(    1) = (   0.0000000   0.0000000   0.0000000), wk =   2.0000000

     Dense  grid:  1168287 G-vectors     FFT dimensions: ( 135, 135, 135)

     Smooth grid:   104415 G-vectors     FFT dimensions: (  60,  60,  60)

     Estimated max dynamical RAM per process >     337.63 MB

     Estimated total dynamical RAM >       5.28 GB

     Self-consistent Calculation

     iteration #  1     ecut=    20.00 Ry     beta=0.70
     ethr =  1.00E-02
Average number of iterations:     4.000000
     Ef =   0.4647087569138080

     total energy              =    -818.34414671 Ry
     Harris-Foulkes estimate   =       0.00000000 Ry
     estimated scf accuracy    <       2.07615203 Ry

     End of self-consistent calculation

     convergence NOT achieved after   2 iterations: stopping
--------------------------------------------------------------------------------------------------------------------------------------------
name                                                                 count      total        min        max    average    self (%)
--------------------------------------------------------------------------------------------------------------------------------------------
Eigenproblem_elpa1|diag                                           :      6     3.1459     0.0766     1.6879     0.5243     100.00
Eigenproblem_elpa:transform_back                                  :      2     0.0245     0.0018     0.0227     0.0122     100.00
Eigenproblem_elpa:transform_to_standard                           :      2     1.4401     0.0124     1.4278     0.7201     100.00
qe|electrons                                                      :      1    19.7031    19.7031    19.7031    19.7031       0.00
qe|electrons|init                                                 :      1    13.3676    13.3676    13.3676    13.3676       6.11
qe|electrons|scf                                                  :      1     6.2987     6.2987     6.2987     6.2987       1.82
qe|init_run|hinit0                                                :      1     2.4723     2.4723     2.4723     2.4723       0.81
qe|init_run|hinit0|init_us_1                                      :      1     0.3766     0.3766     0.3766     0.3766     100.00
qe|init_run|hinit0|struc_fact                                     :      1     2.0753     2.0753     2.0753     2.0753     100.00
qe|mix                                                            :      1     0.0805     0.0805     0.0805     0.0805     100.00
qe|run_pwscf                                                      :      1    35.4211    35.4211    35.4211    35.4211       3.55
qe|run_pwscf|electrons                                            :      1    19.7079    19.7079    19.7079    19.7079       0.02
qe|run_pwscf|init_run                                             :      1     5.1346     5.1346     5.1346     5.1346      51.85
qe|run_pwscf|setup                                                :      1     0.5000     0.5000     0.5000     0.5000     100.00
qe|run_pwscf|setup_sirius                                         :      1     8.8195     8.8195     8.8195     8.8195       2.97
qe|v_ha                                                           :      2     0.0677     0.0176     0.0501     0.0338     100.00
qe|v_xc                                                           :      2     0.1892     0.0265     0.1628     0.0946     100.00
qe|veff                                                           :      1     0.4326     0.4326     0.4326     0.4326      14.23
sddk::FFT3D::FFT3D                                                :      2     0.4948     0.0009     0.4939     0.2474     100.00
sddk::FFT3D::transform                                            :    118     1.6667     0.0018     0.3749     0.0141       0.84
sddk::FFT3D::transform_xy                                         :    118     0.8590     0.0015     0.2391     0.0073     100.00
sddk::FFT3D::transform_z                                          :    118     0.7937     0.0003     0.3532     0.0067       0.27
sddk::FFT3D::transform_z_serial                                   :    118     0.3460     0.0003     0.0683     0.0029     100.00
sddk::FFT3D::transform_z|comm                                     :     10     0.4456     0.0020     0.3514     0.0446     100.00
sddk::Gvec::find_gvec_shells                                      :      3     0.1903     0.0030     0.1748     0.0634     100.00
sddk::Gvec::init                                                  :      3     0.7079     0.0103     0.6409     0.2360      73.12
sddk::matrix_storage::remap_backward                              :      6     0.5636     0.0002     0.3512     0.0939     100.00
sddk::matrix_storage::remap_forward                               :      7     0.1361     0.0006     0.0596     0.0194     100.00
sddk::remap_gvec_to_shells|init                                   :      1     0.1698     0.1698     0.1698     0.1698     100.00
sddk::wave_functions::inner                                       :     16     0.7581     0.0007     0.2478     0.0474     100.00
sddk::wave_functions::orthogonalize                               :      4     0.8336     0.0087     0.4704     0.2084       0.59
sddk::wave_functions::orthogonalize|potrf                         :      4     0.2805     0.0002     0.2635     0.0701     100.00
sddk::wave_functions::orthogonalize|trtri                         :      4     0.1336     0.0001     0.1308     0.0334     100.00
sddk::wave_functions::transform                                   :     22     0.2916     0.0007     0.0684     0.0133      94.12
sddk::wave_functions::transform|init                              :     22     0.0171     0.0000     0.0062     0.0008     100.00
sirius::Atom_type::init                                           :      2     0.0853     0.0243     0.0610     0.0426     100.00
sirius::Augmentation_operator::generate_pw_coeffs                 :      2     2.9820     1.4392     1.5427     1.4910     100.00
sirius::Band::Band                                                :      1     0.0523     0.0523     0.0523     0.0523     100.00
sirius::Band::apply_h_o                                           :      6     2.2104     0.0422     1.2020     0.3684       1.73
sirius::Band::diag_pseudo_potential                               :      1     3.7236     3.7236     3.7236     3.7236       0.11
sirius::Band::diag_pseudo_potential_davidson                      :      1     3.7173     3.7173     3.7173     3.7173       0.11
sirius::Band::diag_pseudo_potential_davidson|evp                  :      5     1.4725     0.0827     0.5684     0.2945       0.03
sirius::Band::diag_pseudo_potential_davidson|iter                 :      1     3.6470     3.6470     3.6470     3.6470       0.43
sirius::Band::diag_pseudo_potential_davidson|update_phi           :      1     0.0129     0.0129     0.0129     0.0129       0.30
sirius::Band::get_o_diag                                          :      1     0.0532     0.0532     0.0532     0.0532     100.00
sirius::Band::initialize_subspace                                 :      1     5.7750     5.7750     5.7750     5.7750       8.40
sirius::Band::initialize_subspace|kp                              :      1     4.8526     4.8526     4.8526     4.8526       2.04
sirius::Band::initialize_subspace|kp|wf                           :      1     0.0273     0.0273     0.0273     0.0273     100.00
sirius::Band::residuals                                           :      5     0.1136     0.0000     0.0486     0.0227      20.73
sirius::Band::residuals_aux                                       :      4     0.0326     0.0002     0.0145     0.0082     100.00
sirius::Band::set_subspace_mtrx                                   :      8     0.5399     0.0017     0.2479     0.0675       0.16
sirius::Band::solve_for_kset                                      :      1     3.7796     3.7796     3.7796     3.7796       0.28
sirius::Beta_projectors::Beta_projectors                          :      1     0.0155     0.0155     0.0155     0.0155      77.29
sirius::Beta_projectors_base::generate                            :      7     0.2218     0.0293     0.0446     0.0317     100.00
sirius::Beta_projectors_base::inner                               :      7     0.4897     0.0020     0.3427     0.0700     100.00
sirius::DFT_ground_state::ewald_energy                            :      1     0.2232     0.2232     0.2232     0.2232     100.00
sirius::Density::add_k_point_contribution_dm                      :      1     0.0752     0.0752     0.0752     0.0752       8.50
sirius::Density::add_k_point_contribution_rg                      :      1     0.0894     0.0894     0.0894     0.0894      66.80
sirius::Density::augment                                          :      1     1.1246     1.1246     1.1246     1.1246       0.03
sirius::Density::generate_pseudo_core_charge_density              :      1     0.8462     0.8462     0.8462     0.8462       0.52
sirius::Density::generate_rho_aug                                 :      1     1.1243     1.1243     1.1243     1.1243      29.14
sirius::Density::generate_rho_aug|gemm                            :      2     0.6187     0.3002     0.3185     0.3094     100.00
sirius::Density::generate_rho_aug|phase_fac                       :      2     0.0853     0.0137     0.0716     0.0427     100.00
sirius::Density::generate_rho_aug|sum                             :      2     0.0926     0.0461     0.0465     0.0463     100.00
sirius::Density::generate_valence                                 :      1     1.8227     1.8227     1.8227     1.8227      26.61
sirius::Density::initial_density                                  :      1     0.9433     0.9433     0.9433     0.9433       3.68
sirius::K_point::generate_gkvec                                   :      1     0.3874     0.3874     0.3874     0.3874      97.35
sirius::K_point::initialize                                       :      1     0.4123     0.4123     0.4123     0.4123       2.17
sirius::Local_operator::apply_h                                   :      6     1.2486     0.0059     0.6033     0.2081       9.93
sirius::Local_operator::prepare                                   :      4     0.4867     0.0022     0.4371     0.1217       4.66
sirius::Non_local_operator::apply                                 :     12     0.2809     0.0024     0.1518     0.0234     100.00
sirius::Periodic_function::inner                                  :      3     0.0546     0.0140     0.0203     0.0182      62.88
sirius::Potential::Potential                                      :      1     3.4710     3.4710     3.4710     3.4710       4.44
sirius::Potential::generate_D_operator_matrix                     :      2     0.8797     0.2155     0.6642     0.4399     100.00
sirius::Potential::generate_local_potential                       :      1     3.3169     3.3169     3.3169     3.3169       0.02
sirius::Radial_integrals|aug                                      :      1     0.4863     0.4863     0.4863     0.4863     100.00
sirius::Radial_integrals|beta                                     :      2     2.5710     1.2054     1.3657     1.2855     100.00
sirius::Radial_integrals|rho_core_pseudo                          :      1     0.3431     0.3431     0.3431     0.3431     100.00
sirius::Radial_integrals|rho_pseudo                               :      1     0.2517     0.2517     0.2517     0.2517     100.00
sirius::Radial_integrals|vloc                                     :      1     2.9637     2.9637     2.9637     2.9637     100.00
sirius::Simulation_context::initialize                            :      1     8.1411     8.1411     8.1411     8.1411       0.73
sirius::Simulation_context_base::initialize                       :      1     5.0997     5.0997     5.0997     5.0997       7.84
sirius::Simulation_context_base::make_periodic_function           :      3     0.4186     0.0953     0.2234     0.1395     100.00
sirius::Smooth_periodic_function::fft_transform                   :     11     1.2838     0.0151     0.4038     0.1167      18.64
sirius::Smooth_periodic_function::gather_f_pw                     :      7     0.3914     0.0029     0.2723     0.0559     100.00
sirius::Unit_cell::find_nearest_neighbours                        :      1     0.1767     0.1767     0.1767     0.1767     100.00
sirius::Unit_cell::initialize                                     :      1     0.2804     0.2804     0.2804     0.2804       6.57
sirius_api::sirius_get_pw_coeffs                                  :      4     0.1444     0.0188     0.0574     0.0361      42.49
sirius_api::sirius_set_pw_coeffs                                  :      5     0.3854     0.0311     0.1353     0.0771      63.05
--------------------------------------------------------------------------------------------------------------------------------------------
+global_timer (   35.9984s, 1.60 % of self, 100.00 % of total)
|--qe|run_pwscf (   35.4211s, 98.40 %) 
qe|electrons (   19.7031s, 0.00 % of self, 54.73 % of total)
|--qe|electrons|init (   13.3676s, 67.85 %) 
|--qe|electrons|scf (    6.2987s, 31.97 %) 
|--sirius_api::sirius_set_pw_coeffs (    0.0366s, 0.19 %) 
qe|electrons|init (   13.3676s, 6.11 % of self, 37.13 % of total)
|--sirius::Band::initialize_subspace (    5.7750s, 43.20 %) 
|--sirius::Potential::Potential (    3.4710s, 25.97 %) 
|--sirius::Density::initial_density (    0.9433s, 7.06 %) 
|--sirius::Density::generate_pseudo_core_charge_density (    0.8462s, 6.33 %) 
|--sirius::Potential::generate_D_operator_matrix (    0.6642s, 4.97 %) 
|--sirius_api::sirius_set_pw_coeffs (    0.2373s, 1.77 %) 
|--sirius::DFT_ground_state::ewald_energy (    0.2232s, 1.67 %) 
|--qe|v_xc (    0.1628s, 1.22 %) 
|--sirius_api::sirius_get_pw_coeffs (    0.1256s, 0.94 %) 
|--sirius::Band::Band (    0.0523s, 0.39 %) 
|--qe|v_ha (    0.0501s, 0.37 %) 
qe|electrons|scf (    6.2987s, 1.82 % of self, 17.50 % of total)
|--sirius::Band::solve_for_kset (    3.7796s, 60.01 %) 
|--sirius::Density::generate_valence (    1.8227s, 28.94 %) 
|--qe|veff (    0.4326s, 6.87 %) 
|--qe|mix (    0.0805s, 1.28 %) 
|--sirius::Periodic_function::inner (    0.0344s, 0.55 %) 
|--sirius_api::sirius_get_pw_coeffs (    0.0188s, 0.30 %) 
|--sirius::Smooth_periodic_function::fft_transform (    0.0158s, 0.25 %) 
qe|init_run|hinit0 (    2.4723s, 0.81 % of self, 6.87 % of total)
|--qe|init_run|hinit0|struc_fact (    2.0753s, 83.94 %) 
|--qe|init_run|hinit0|init_us_1 (    0.3766s, 15.23 %) 
|--qe|init_run|hinit0|init_igk (    0.0004s, 0.02 %) 
|--qe|init_run|hinit0|init_vloc (    0.0000s, 0.00 %) 
|--qe|init_run|hinit0|init_at_1 (    0.0000s, 0.00 %) 
|--qe|init_run|hinit0|setlocal (    0.0000s, 0.00 %) 
|--qe|init_run|hinit0|set_rhoc (    0.0000s, 0.00 %) 
qe|run_pwscf (   35.4211s, 3.55 % of self, 98.40 % of total)
|--qe|run_pwscf|electrons (   19.7079s, 55.64 %) 
|--qe|run_pwscf|setup_sirius (    8.8195s, 24.90 %) 
|--qe|run_pwscf|init_run (    5.1346s, 14.50 %) 
|--qe|run_pwscf|setup (    0.5000s, 1.41 %) 
qe|run_pwscf|electrons (   19.7079s, 0.02 % of self, 54.75 % of total)
|--qe|electrons (   19.7031s, 99.98 %) 
qe|run_pwscf|init_run (    5.1346s, 51.85 % of self, 14.26 % of total)
|--qe|init_run|hinit0 (    2.4723s, 48.15 %) 
|--qe|init_run|potinit (    0.0000s, 0.00 %) 
|--qe|init_run|newd (    0.0000s, 0.00 %) 
qe|run_pwscf|setup_sirius (    8.8195s, 2.97 % of self, 24.50 % of total)
|--sirius::Simulation_context::initialize (    8.1411s, 92.31 %) 
|--sirius::K_point::initialize (    0.4123s, 4.68 %) 
|--sirius::K_point_set::add_kpoints (    0.0043s, 0.05 %) 
|--sirius::K_point_set::K_point_set (    0.0000s, 0.00 %) 
qe|veff (    0.4326s, 14.23 % of self, 1.20 % of total)
|--sirius::Potential::generate_D_operator_matrix (    0.2155s, 49.81 %) 
|--sirius_api::sirius_set_pw_coeffs (    0.1115s, 25.77 %) 
|--qe|v_xc (    0.0265s, 6.12 %) 
|--qe|v_ha (    0.0176s, 4.07 %) 
sddk::FFT3D::transform (    1.6667s, 0.84 % of self, 4.63 % of total)
|--sddk::FFT3D::transform_xy (    0.8590s, 51.54 %) 
|--sddk::FFT3D::transform_z (    0.7937s, 47.62 %) 
sddk::FFT3D::transform_z (    0.7937s, 0.27 % of self, 2.20 % of total)
|--sddk::FFT3D::transform_z|comm (    0.4456s, 56.14 %) 
|--sddk::FFT3D::transform_z_serial (    0.3460s, 43.59 %) 
sddk::Gvec::init (    0.7079s, 73.12 % of self, 1.97 % of total)
|--sddk::Gvec::find_gvec_shells (    0.1903s, 26.88 %) 
sddk::wave_functions::orthogonalize (    0.8336s, 0.59 % of self, 2.32 % of total)
|--sddk::wave_functions::orthogonalize|potrf (    0.2805s, 33.65 %) 
|--sddk::wave_functions::inner (    0.2191s, 26.28 %) 
|--sddk::wave_functions::transform (    0.1954s, 23.44 %) 
|--sddk::wave_functions::orthogonalize|trtri (    0.1336s, 16.03 %) 
sirius::Band::apply_h_o (    2.2104s, 1.73 % of self, 6.14 % of total)
|--sirius::Local_operator::apply_h (    1.2486s, 56.49 %) 
|--sirius::Beta_projectors_base::inner (    0.4512s, 20.41 %) 
|--sirius::Non_local_operator::apply (    0.2809s, 12.71 %) 
|--sirius::Beta_projectors_base::generate (    0.1915s, 8.66 %) 
sirius::Band::diag_pseudo_potential (    3.7236s, 0.11 % of self, 10.34 % of total)
|--sirius::Band::diag_pseudo_potential_davidson (    3.7173s, 99.83 %) 
|--sirius::Local_operator::prepare (    0.0022s, 0.06 %) 
|--sddk::FFT3D::prepare (    0.0001s, 0.00 %) 
|--sirius::Non_local_operator::Non_local_operator (    0.0000s, 0.00 %) 
sirius::Band::diag_pseudo_potential_davidson (    3.7173s, 0.11 % of self, 10.33 % of total)
|--sirius::Band::diag_pseudo_potential_davidson|iter (    3.6470s, 98.11 %) 
|--sirius::Band::get_o_diag (    0.0532s, 1.43 %) 
|--sirius::Band::get_h_diag (    0.0074s, 0.20 %) 
|--sirius::Band::diag_pseudo_potential_davidson|wf (    0.0051s, 0.14 %) 
|--sirius::Band::diag_pseudo_potential_davidson|alloc (    0.0005s, 0.01 %) 
|--sirius::Beta_projectors_base::dismiss (    0.0000s, 0.00 %) 
sirius::Band::diag_pseudo_potential_davidson|evp (    1.4725s, 0.03 % of self, 4.09 % of total)
|--Eigenproblem_elpa1|diag (    1.4580s, 99.01 %) 
|--Eigenproblem_elpa:transform_to_standard (    0.0124s, 0.84 %) 
|--Eigenproblem_elpa:transform_back (    0.0018s, 0.12 %) 
sirius::Band::diag_pseudo_potential_davidson|iter (    3.6470s, 0.43 % of self, 10.13 % of total)
|--sirius::Band::diag_pseudo_potential_davidson|evp (    1.4725s, 40.38 %) 
|--sirius::Band::apply_h_o (    1.0084s, 27.65 %) 
|--sddk::wave_functions::orthogonalize (    0.8336s, 22.86 %) 
|--sirius::Band::set_subspace_mtrx (    0.1905s, 5.22 %) 
|--sirius::Band::residuals (    0.1136s, 3.11 %) 
|--sirius::Band::diag_pseudo_potential_davidson|update_phi (    0.0129s, 0.35 %) 
sirius::Band::initialize_subspace (    5.7750s, 8.40 % of self, 16.04 % of total)
|--sirius::Band::initialize_subspace|kp (    4.8526s, 84.03 %) 
|--sirius::Local_operator::prepare (    0.4371s, 7.57 %) 
sirius::Band::initialize_subspace|kp (    4.8526s, 2.04 % of self, 13.48 % of total)
|--Eigenproblem_elpa1|diag (    1.6879s, 34.78 %) 
|--Eigenproblem_elpa:transform_to_standard (    1.4278s, 29.42 %) 
|--sirius::Band::apply_h_o (    1.2020s, 24.77 %) 
|--sirius::Band::set_subspace_mtrx (    0.3494s, 7.20 %) 
|--sirius::Band::initialize_subspace|kp|wf (    0.0273s, 0.56 %) 
|--sddk::wave_functions::transform (    0.0260s, 0.54 %) 
|--Eigenproblem_elpa:transform_back (    0.0227s, 0.47 %) 
|--sddk::matrix_storage::matrix_storage (    0.0082s, 0.17 %) 
|--sirius::Local_operator::prepare (    0.0022s, 0.05 %) 
|--sddk::FFT3D::prepare (    0.0000s, 0.00 %) 
|--sirius::Non_local_operator::Non_local_operator (    0.0000s, 0.00 %) 
|--sirius::Beta_projectors_base::prepare (    0.0000s, 0.00 %) 
|--sirius::Beta_projectors_base::dismiss (    0.0000s, 0.00 %) 
sirius::Band::set_subspace_mtrx (    0.5399s, 0.16 % of self, 1.50 % of total)
|--sddk::wave_functions::inner (    0.5390s, 99.84 %) 
sirius::Band::solve_for_kset (    3.7796s, 0.28 % of self, 10.50 % of total)
|--sirius::Band::diag_pseudo_potential (    3.7236s, 98.52 %) 
|--sirius::Local_operator::prepare (    0.0452s, 1.20 %) 
|--sirius::K_point_set::sync_band_energies (    0.0000s, 0.00 %) 
sirius::Density::augment (    1.1246s, 0.03 % of self, 3.12 % of total)
|--sirius::Density::generate_rho_aug (    1.1243s, 99.97 %) 
sirius::Density::generate_pseudo_core_charge_density (    0.8462s, 0.52 % of self, 2.35 % of total)
|--sirius::Smooth_periodic_function::fft_transform (    0.4034s, 47.67 %) 
|--sirius::Radial_integrals|rho_core_pseudo (    0.3431s, 40.55 %) 
|--sirius::Simulation_context_base::make_periodic_function (    0.0953s, 11.26 %) 
sirius::Density::generate_rho_aug (    1.1243s, 29.14 % of self, 3.12 % of total)
|--sirius::Density::generate_rho_aug|gemm (    0.6187s, 55.03 %) 
|--sirius::Density::generate_rho_aug|sum (    0.0926s, 8.24 %) 
|--sirius::Density::generate_rho_aug|phase_fac (    0.0853s, 7.59 %) 
sirius::Density::generate_valence (    1.8227s, 26.61 % of self, 5.06 % of total)
|--sirius::Density::augment (    1.1246s, 61.70 %) 
|--sirius::Density::add_k_point_contribution_rg (    0.0894s, 4.90 %) 
|--sirius::Density::add_k_point_contribution_dm (    0.0752s, 4.13 %) 
|--sirius::Smooth_periodic_function::fft_transform (    0.0361s, 1.98 %) 
|--sddk::matrix_storage::remap_forward (    0.0092s, 0.50 %) 
|--sirius::Smooth_periodic_function::gather_f_pw (    0.0029s, 0.16 %) 
|--sddk::FFT3D::prepare (    0.0002s, 0.01 %) 
sirius::Density::initial_density (    0.9433s, 3.68 % of self, 2.62 % of total)
|--sirius::Smooth_periodic_function::fft_transform (    0.5568s, 59.03 %) 
|--sirius::Radial_integrals|rho_pseudo (    0.2517s, 26.69 %) 
|--sirius::Simulation_context_base::make_periodic_function (    0.1000s, 10.60 %) 
sirius::K_point::generate_gkvec (    0.3874s, 97.35 % of self, 1.08 % of total)
|--sddk::Gvec::init (    0.0103s, 2.65 %) 
sirius::K_point::initialize (    0.4123s, 2.17 % of self, 1.15 % of total)
|--sirius::K_point::generate_gkvec (    0.3874s, 93.95 %) 
|--sirius::Beta_projectors::Beta_projectors (    0.0155s, 3.76 %) 
|--sddk::matrix_storage::matrix_storage (    0.0005s, 0.13 %) 
sirius::Local_operator::apply_h (    1.2486s, 9.93 % of self, 3.47 % of total)
|--sddk::matrix_storage::remap_backward (    0.5636s, 45.14 %) 
|--sddk::FFT3D::transform (    0.4341s, 34.77 %) 
|--sddk::matrix_storage::remap_forward (    0.1269s, 10.16 %) 
sirius::Local_operator::prepare (    0.4867s, 4.66 % of self, 1.35 % of total)
|--sirius::Smooth_periodic_function::gather_f_pw (    0.3054s, 62.75 %) 
|--sddk::FFT3D::transform (    0.1584s, 32.55 %) 
|--sddk::FFT3D::prepare (    0.0002s, 0.04 %) 
sirius::Potential::Potential (    3.4710s, 4.44 % of self, 9.64 % of total)
|--sirius::Potential::generate_local_potential (    3.3169s, 95.56 %) 
|--sirius::Potential::init (    0.0000s, 0.00 %) 
sirius::Potential::generate_local_potential (    3.3169s, 0.02 % of self, 9.21 % of total)
|--sirius::Radial_integrals|vloc (    2.9637s, 89.35 %) 
|--sirius::Simulation_context_base::make_periodic_function (    0.2234s, 6.73 %) 
|--sirius::Smooth_periodic_function::fft_transform (    0.1293s, 3.90 %) 
sirius::Simulation_context::initialize (    8.1411s, 0.73 % of self, 22.62 % of total)
|--sirius::Simulation_context_base::initialize (    5.0997s, 62.64 %) 
|--sirius::Augmentation_operator::generate_pw_coeffs (    2.9820s, 36.63 %) 
sirius::Simulation_context_base::initialize (    5.0997s, 7.84 % of self, 14.17 % of total)
|--sirius::Radial_integrals|beta (    2.5710s, 50.42 %) 
|--sddk::Gvec::init (    0.6976s, 13.68 %) 
|--sddk::FFT3D::FFT3D (    0.4948s, 9.70 %) 
|--sirius::Radial_integrals|aug (    0.4863s, 9.54 %) 
|--sirius::Unit_cell::initialize (    0.2804s, 5.50 %) 
|--sddk::remap_gvec_to_shells|init (    0.1698s, 3.33 %) 
|--sddk::FFT3D::prepare (    0.0002s, 0.00 %) 
sirius::Smooth_periodic_function::fft_transform (    1.2838s, 18.64 % of self, 3.57 % of total)
|--sddk::FFT3D::transform (    1.0445s, 81.36 %) 
sirius_api::sirius_set_pw_coeffs (    0.3854s, 63.05 % of self, 1.07 % of total)
|--sirius::Smooth_periodic_function::fft_transform (    0.1424s, 36.95 %) 

     init_run     :      9.90s CPU      5.13s WALL (       1 calls)

     Called by init_run:

     Called by electrons:
     v_of_rho     :      0.42s CPU      0.43s WALL (       2 calls)
     mix_rho      :      0.14s CPU      0.07s WALL (       1 calls)
     sym_rho      :      0.03s CPU      0.04s WALL (       1 calls)

     Called by c_bands:

     Called by sum_band:

     Called by *egterg:

     Called by h_psi:

     General routines
     fft          :      0.69s CPU      0.57s WALL (      12 calls)

     Parallel routines
     fft_scatter  :      0.39s CPU      0.23s WALL (      12 calls)

     PWSCF        :  1m 4.73s CPU     0m36.86s WALL


   This run was terminated on:  10:22:25  22Sep2017            

=------------------------------------------------------------------------------=
   JOB DONE.
=------------------------------------------------------------------------------=
Note: The following floating-point exceptions are signalling: IEEE_INVALID_FLAG IEEE_DIVIDE_BY_ZERO IEEE_UNDERFLOW_FLAG IEEE_DENORMAL
STOP 2
Note: The following floating-point exceptions are signalling: IEEE_INVALID_FLAG IEEE_DIVIDE_BY_ZERO IEEE_UNDERFLOW_FLAG IEEE_DENORMAL
STOP 2
Note: The following floating-point exceptions are signalling: IEEE_INVALID_FLAG IEEE_DIVIDE_BY_ZERO IEEE_UNDERFLOW_FLAG IEEE_DENORMAL
STOP 2
Note: The following floating-point exceptions are signalling: IEEE_INVALID_FLAG IEEE_DIVIDE_BY_ZERO IEEE_UNDERFLOW_FLAG IEEE_DENORMAL
STOP 2
Note: The following floating-point exceptions are signalling: IEEE_INVALID_FLAG IEEE_DIVIDE_BY_ZERO IEEE_UNDERFLOW_FLAG IEEE_DENORMAL
STOP 2
Note: The following floating-point exceptions are signalling: IEEE_INVALID_FLAG IEEE_UNDERFLOW_FLAG IEEE_DENORMAL
STOP 2
Note: The following floating-point exceptions are signalling: IEEE_INVALID_FLAG IEEE_DIVIDE_BY_ZERO IEEE_UNDERFLOW_FLAG IEEE_DENORMAL
STOP 2
Note: The following floating-point exceptions are signalling: IEEE_INVALID_FLAG IEEE_DIVIDE_BY_ZERO IEEE_UNDERFLOW_FLAG IEEE_DENORMAL
STOP 2
Note: The following floating-point exceptions are signalling: IEEE_INVALID_FLAG IEEE_DIVIDE_BY_ZERO IEEE_UNDERFLOW_FLAG IEEE_DENORMAL
STOP 2
Note: The following floating-point exceptions are signalling: IEEE_INVALID_FLAG IEEE_UNDERFLOW_FLAG IEEE_DENORMAL
STOP 2
Note: The following floating-point exceptions are signalling: IEEE_INVALID_FLAG IEEE_UNDERFLOW_FLAG IEEE_DENORMAL
STOP 2
Note: The following floating-point exceptions are signalling: IEEE_INVALID_FLAG IEEE_DIVIDE_BY_ZERO IEEE_UNDERFLOW_FLAG IEEE_DENORMAL
STOP 2
Note: The following floating-point exceptions are signalling: IEEE_INVALID_FLAG IEEE_DIVIDE_BY_ZERO IEEE_UNDERFLOW_FLAG IEEE_DENORMAL
STOP 2
Note: The following floating-point exceptions are signalling: IEEE_INVALID_FLAG IEEE_UNDERFLOW_FLAG IEEE_DENORMAL
STOP 2
Note: The following floating-point exceptions are signalling: IEEE_INVALID_FLAG IEEE_UNDERFLOW_FLAG IEEE_DENORMAL
STOP 2
Note: The following floating-point exceptions are signalling: IEEE_INVALID_FLAG IEEE_UNDERFLOW_FLAG IEEE_DENORMAL
STOP 2
srun: error: nid00000: tasks 0-15: Exited with exit code 2
srun: Terminating job step 681670.0
