srun -n 64 -c 1 --unbuffered --hint=nomultithread ../../../../q-e/PW/src/pw.x -i pw.in -ndiag 64 -npool 1

     Program PWSCF v.6.1 starts on 22Sep2017 at 10:21:58 

     This program is part of the open-source Quantum ESPRESSO suite
     for quantum simulation of materials; please cite
         "P. Giannozzi et al., J. Phys.:Condens. Matter 21 395502 (2009);
          URL http://www.quantum-espresso.org", 
     in publications or presentations arising from this work. More details at
     http://www.quantum-espresso.org/quote

     Parallel version (MPI & OpenMP), running on      64 processor cores
     Number of MPI processes:                64
     Threads/MPI process:                     1
     R & G space division:  proc/nbgrp/npool/nimage =      64
     Reading input from pw.in
     Message from routine read_cards :
     DEPRECATED: no units specified in CELL_PARAMETERS card
SIRIUS 4.8, git hash: 551de771a30cd15b2939e16597f7a14067616a3f

     Current dimensions of program PWSCF are:
     Max number of different atomic species (ntypx) = 10
     Max number of k-points (npk) =  40000
     Max angular momentum in pseudopotentials (lmaxx) =  3

     Subspace diagonalization in iterative solution of the eigenvalue problem:
     one sub-group per band group will be used
     custom distributed-memory algorithm (size of sub-group:  8*  8 procs)


   Info: using nr1, nr2, nr3 values from input

     Parallelization info
     --------------------
     sticks:   dense  smooth     PW     G-vecs:    dense   smooth      PW
     Min         209      42     10                18251     1630     202
     Max         210      43     11                18256     1633     209
     Sum       13429    2701    673              1168287   104415   13133



     bravais-lattice index     =            0
     lattice parameter (alat)  =       1.0000  a.u.
     unit-cell volume          =    8646.7719 (a.u.)^3
     number of atoms/cell      =           64
     number of atomic types    =            2
     number of electrons       =       266.00
     number of Kohn-Sham states=          160
     kinetic-energy cutoff     =      20.0000  Ry
     charge density cutoff     =     400.0000  Ry
     convergence threshold     =      1.0E-11
     mixing beta               =       0.7000
     number of iterations used =            8  plain     mixing
     Exchange-correlation      = SLA  PZ   NOGX NOGC ( 1  1  0  0 0 0)

     celldm(1)=   1.000000  celldm(2)=   0.000000  celldm(3)=   0.000000
     celldm(4)=   0.000000  celldm(5)=   0.000000  celldm(6)=   0.000000

     crystal axes: (cart. coord. in units of alat)
               a(1) = (  20.525071   0.000000   0.000000 )  
               a(2) = (   0.000000  20.525071   0.000000 )  
               a(3) = (   0.000000   0.000000  20.525071 )  

     reciprocal axes: (cart. coord. in units 2 pi/alat)
               b(1) = (  0.048721  0.000000  0.000000 )  
               b(2) = (  0.000000  0.048721  0.000000 )  
               b(3) = (  0.000000  0.000000  0.048721 )  


     PseudoPot. # 1 for Ge read from file:
     ./ge_lda_v1.4.uspp.F.UPF
     MD5 check sum: bf9d52b59cc8a669818bb2b52e0c2ba0
     Pseudo is Ultrasoft + core correction, Zval = 14.0
     Generated by new atomic code, or converted to UPF format
     Using radial grid of  873 points,  6 beta functions with: 
                l(1) =   0
                l(2) =   0
                l(3) =   1
                l(4) =   1
                l(5) =   2
                l(6) =   2
     Q(r) pseudized with  8 coefficients,  rinner =    1.400   1.400   1.400
                                                       1.400   1.400

     PseudoPot. # 2 for Si read from file:
     ./si_lda_v1.uspp.F.UPF
     MD5 check sum: b5ade7b37ee992b02096e360e546dc2d
     Pseudo is Ultrasoft + core correction, Zval =  4.0
     Generated by new atomic code, or converted to UPF format
     Using radial grid of  899 points,  6 beta functions with: 
                l(1) =   0
                l(2) =   0
                l(3) =   1
                l(4) =   1
                l(5) =   2
                l(6) =   2
     Q(r) pseudized with  8 coefficients,  rinner =    0.900   0.900   0.900
                                                       0.900   0.900

     atomic species   valence    mass     pseudopotential
        Ge            14.00    72.61000     Ge( 1.00)
        Si             4.00    28.08550     Si( 1.00)

     24 Sym. Ops. (no inversion) found



   Cartesian axes

     site n.     atom                  positions (a.u.)
         1           Ge  tau(   1) = (   0.0000000   0.0000000   0.0000000  )
         2           Si  tau(   2) = (   0.0000000   0.0000000  10.2625355  )
         3           Si  tau(   3) = (   0.0000000  10.2625355   0.0000000  )
         4           Si  tau(   4) = (   0.0000000  10.2625355  10.2625355  )
         5           Si  tau(   5) = (  10.2625355   0.0000000   0.0000000  )
         6           Si  tau(   6) = (  10.2625355   0.0000000  10.2625355  )
         7           Si  tau(   7) = (  10.2625355  10.2625355   0.0000000  )
         8           Si  tau(   8) = (  10.2625355  10.2625355  10.2625355  )
         9           Si  tau(   9) = (   0.0000000   5.1312678   5.1312678  )
        10           Si  tau(  10) = (   0.0000000   5.1312678  15.3938033  )
        11           Si  tau(  11) = (   0.0000000  15.3938033   5.1312678  )
        12           Si  tau(  12) = (   0.0000000  15.3938033  15.3938033  )
        13           Si  tau(  13) = (  10.2625355   5.1312678   5.1312678  )
        14           Si  tau(  14) = (  10.2625355   5.1312678  15.3938033  )
        15           Si  tau(  15) = (  10.2625355  15.3938033   5.1312678  )
        16           Si  tau(  16) = (  10.2625355  15.3938033  15.3938033  )
        17           Si  tau(  17) = (   5.1312678   0.0000000   5.1312678  )
        18           Si  tau(  18) = (   5.1312678   0.0000000  15.3938033  )
        19           Si  tau(  19) = (   5.1312678  10.2625355   5.1312678  )
        20           Si  tau(  20) = (   5.1312678  10.2625355  15.3938033  )
        21           Si  tau(  21) = (  15.3938033   0.0000000   5.1312678  )
        22           Si  tau(  22) = (  15.3938033   0.0000000  15.3938033  )
        23           Si  tau(  23) = (  15.3938033  10.2625355   5.1312678  )
        24           Si  tau(  24) = (  15.3938033  10.2625355  15.3938033  )
        25           Si  tau(  25) = (   5.1312678   5.1312678   0.0000000  )
        26           Si  tau(  26) = (   5.1312678   5.1312678  10.2625355  )
        27           Si  tau(  27) = (   5.1312678  15.3938033   0.0000000  )
        28           Si  tau(  28) = (   5.1312678  15.3938033  10.2625355  )
        29           Si  tau(  29) = (  15.3938033   5.1312678   0.0000000  )
        30           Si  tau(  30) = (  15.3938033   5.1312678  10.2625355  )
        31           Si  tau(  31) = (  15.3938033  15.3938033   0.0000000  )
        32           Si  tau(  32) = (  15.3938033  15.3938033  10.2625355  )
        33           Si  tau(  33) = (   7.6969016   7.6969016   2.5656339  )
        34           Si  tau(  34) = (   7.6969016   7.6969016  12.8281694  )
        35           Si  tau(  35) = (   7.6969016  17.9594371   2.5656339  )
        36           Si  tau(  36) = (   7.6969016  17.9594371  12.8281694  )
        37           Si  tau(  37) = (  17.9594371   7.6969016   2.5656339  )
        38           Si  tau(  38) = (  17.9594371   7.6969016  12.8281694  )
        39           Si  tau(  39) = (  17.9594371  17.9594371   2.5656339  )
        40           Si  tau(  40) = (  17.9594371  17.9594371  12.8281694  )
        41           Si  tau(  41) = (   7.6969016   2.5656339   7.6969016  )
        42           Si  tau(  42) = (   7.6969016   2.5656339  17.9594371  )
        43           Si  tau(  43) = (   7.6969016  12.8281694   7.6969016  )
        44           Si  tau(  44) = (   7.6969016  12.8281694  17.9594371  )
        45           Si  tau(  45) = (  17.9594371   2.5656339   7.6969016  )
        46           Si  tau(  46) = (  17.9594371   2.5656339  17.9594371  )
        47           Si  tau(  47) = (  17.9594371  12.8281694   7.6969016  )
        48           Si  tau(  48) = (  17.9594371  12.8281694  17.9594371  )
        49           Si  tau(  49) = (   2.5656339   7.6969016   7.6969016  )
        50           Si  tau(  50) = (   2.5656339   7.6969016  17.9594371  )
        51           Si  tau(  51) = (   2.5656339  17.9594371   7.6969016  )
        52           Si  tau(  52) = (   2.5656339  17.9594371  17.9594371  )
        53           Si  tau(  53) = (  12.8281694   7.6969016   7.6969016  )
        54           Si  tau(  54) = (  12.8281694   7.6969016  17.9594371  )
        55           Si  tau(  55) = (  12.8281694  17.9594371   7.6969016  )
        56           Si  tau(  56) = (  12.8281694  17.9594371  17.9594371  )
        57           Si  tau(  57) = (   2.5656339   2.5656339   2.5656339  )
        58           Si  tau(  58) = (   2.5656339   2.5656339  12.8281694  )
        59           Si  tau(  59) = (   2.5656339  12.8281694   2.5656339  )
        60           Si  tau(  60) = (   2.5656339  12.8281694  12.8281694  )
        61           Si  tau(  61) = (  12.8281694   2.5656339   2.5656339  )
        62           Si  tau(  62) = (  12.8281694   2.5656339  12.8281694  )
        63           Si  tau(  63) = (  12.8281694  12.8281694   2.5656339  )
        64           Si  tau(  64) = (  12.8281694  12.8281694  12.8281694  )

     number of k points=     1  gaussian smearing, width (Ry)=  0.0010
                       cart. coord. in units 2pi/alat
        k(    1) = (   0.0000000   0.0000000   0.0000000), wk =   2.0000000

     Dense  grid:  1168287 G-vectors     FFT dimensions: ( 135, 135, 135)

     Smooth grid:   104415 G-vectors     FFT dimensions: (  60,  60,  60)

     Estimated max dynamical RAM per process >      85.74 MB

     Estimated total dynamical RAM >       5.36 GB
