srun -n 64 -c 2 --unbuffered --hint=nomultithread ../../../../q-e/PW/src/pw.x -i pw.in -ndiag 64 -npool 1

     Program PWSCF v.6.1 starts on 22Sep2017 at 10: 9:16 

     This program is part of the open-source Quantum ESPRESSO suite
     for quantum simulation of materials; please cite
         "P. Giannozzi et al., J. Phys.:Condens. Matter 21 395502 (2009);
          URL http://www.quantum-espresso.org", 
     in publications or presentations arising from this work. More details at
     http://www.quantum-espresso.org/quote

     Parallel version (MPI & OpenMP), running on     128 processor cores
     Number of MPI processes:                64
     Threads/MPI process:                     2
     R & G space division:  proc/nbgrp/npool/nimage =      64
     Reading input from pw.in
     Message from routine read_cards :
     DEPRECATED: no units specified in CELL_PARAMETERS card
SIRIUS 4.8, git hash: 551de771a30cd15b2939e16597f7a14067616a3f

     Current dimensions of program PWSCF are:
     Max number of different atomic species (ntypx) = 10
     Max number of k-points (npk) =  40000
     Max angular momentum in pseudopotentials (lmaxx) =  3

     Subspace diagonalization in iterative solution of the eigenvalue problem:
     one sub-group per band group will be used
     custom distributed-memory algorithm (size of sub-group:  8*  8 procs)


   Info: using nr1, nr2, nr3 values from input

     Parallelization info
     --------------------
     sticks:   dense  smooth     PW     G-vecs:    dense   smooth      PW
     Min         209      42     10                18251     1630     202
     Max         210      43     11                18256     1633     209
     Sum       13429    2701    673              1168287   104415   13133



     bravais-lattice index     =            0
     lattice parameter (alat)  =       1.0000  a.u.
     unit-cell volume          =    8646.7719 (a.u.)^3
     number of atoms/cell      =           64
     number of atomic types    =            2
     number of electrons       =       266.00
     number of Kohn-Sham states=          160
     kinetic-energy cutoff     =      20.0000  Ry
     charge density cutoff     =     400.0000  Ry
     convergence threshold     =      1.0E-11
     mixing beta               =       0.7000
     number of iterations used =            8  plain     mixing
     Exchange-correlation      = SLA  PZ   NOGX NOGC ( 1  1  0  0 0 0)

     celldm(1)=   1.000000  celldm(2)=   0.000000  celldm(3)=   0.000000
     celldm(4)=   0.000000  celldm(5)=   0.000000  celldm(6)=   0.000000

     crystal axes: (cart. coord. in units of alat)
               a(1) = (  20.525071   0.000000   0.000000 )  
               a(2) = (   0.000000  20.525071   0.000000 )  
               a(3) = (   0.000000   0.000000  20.525071 )  

     reciprocal axes: (cart. coord. in units 2 pi/alat)
               b(1) = (  0.048721  0.000000  0.000000 )  
               b(2) = (  0.000000  0.048721  0.000000 )  
               b(3) = (  0.000000  0.000000  0.048721 )  


     PseudoPot. # 1 for Ge read from file:
     ./ge_lda_v1.4.uspp.F.UPF
     MD5 check sum: bf9d52b59cc8a669818bb2b52e0c2ba0
     Pseudo is Ultrasoft + core correction, Zval = 14.0
     Generated by new atomic code, or converted to UPF format
     Using radial grid of  873 points,  6 beta functions with: 
                l(1) =   0
                l(2) =   0
                l(3) =   1
                l(4) =   1
                l(5) =   2
                l(6) =   2
     Q(r) pseudized with  8 coefficients,  rinner =    1.400   1.400   1.400
                                                       1.400   1.400

     PseudoPot. # 2 for Si read from file:
     ./si_lda_v1.uspp.F.UPF
     MD5 check sum: b5ade7b37ee992b02096e360e546dc2d
     Pseudo is Ultrasoft + core correction, Zval =  4.0
     Generated by new atomic code, or converted to UPF format
     Using radial grid of  899 points,  6 beta functions with: 
                l(1) =   0
                l(2) =   0
                l(3) =   1
                l(4) =   1
                l(5) =   2
                l(6) =   2
     Q(r) pseudized with  8 coefficients,  rinner =    0.900   0.900   0.900
                                                       0.900   0.900

     atomic species   valence    mass     pseudopotential
        Ge            14.00    72.61000     Ge( 1.00)
        Si             4.00    28.08550     Si( 1.00)

     24 Sym. Ops. (no inversion) found



   Cartesian axes

     site n.     atom                  positions (a.u.)
         1           Ge  tau(   1) = (   0.0000000   0.0000000   0.0000000  )
         2           Si  tau(   2) = (   0.0000000   0.0000000  10.2625355  )
         3           Si  tau(   3) = (   0.0000000  10.2625355   0.0000000  )
         4           Si  tau(   4) = (   0.0000000  10.2625355  10.2625355  )
         5           Si  tau(   5) = (  10.2625355   0.0000000   0.0000000  )
         6           Si  tau(   6) = (  10.2625355   0.0000000  10.2625355  )
         7           Si  tau(   7) = (  10.2625355  10.2625355   0.0000000  )
         8           Si  tau(   8) = (  10.2625355  10.2625355  10.2625355  )
         9           Si  tau(   9) = (   0.0000000   5.1312678   5.1312678  )
        10           Si  tau(  10) = (   0.0000000   5.1312678  15.3938033  )
        11           Si  tau(  11) = (   0.0000000  15.3938033   5.1312678  )
        12           Si  tau(  12) = (   0.0000000  15.3938033  15.3938033  )
        13           Si  tau(  13) = (  10.2625355   5.1312678   5.1312678  )
        14           Si  tau(  14) = (  10.2625355   5.1312678  15.3938033  )
        15           Si  tau(  15) = (  10.2625355  15.3938033   5.1312678  )
        16           Si  tau(  16) = (  10.2625355  15.3938033  15.3938033  )
        17           Si  tau(  17) = (   5.1312678   0.0000000   5.1312678  )
        18           Si  tau(  18) = (   5.1312678   0.0000000  15.3938033  )
        19           Si  tau(  19) = (   5.1312678  10.2625355   5.1312678  )
        20           Si  tau(  20) = (   5.1312678  10.2625355  15.3938033  )
        21           Si  tau(  21) = (  15.3938033   0.0000000   5.1312678  )
        22           Si  tau(  22) = (  15.3938033   0.0000000  15.3938033  )
        23           Si  tau(  23) = (  15.3938033  10.2625355   5.1312678  )
        24           Si  tau(  24) = (  15.3938033  10.2625355  15.3938033  )
        25           Si  tau(  25) = (   5.1312678   5.1312678   0.0000000  )
        26           Si  tau(  26) = (   5.1312678   5.1312678  10.2625355  )
        27           Si  tau(  27) = (   5.1312678  15.3938033   0.0000000  )
        28           Si  tau(  28) = (   5.1312678  15.3938033  10.2625355  )
        29           Si  tau(  29) = (  15.3938033   5.1312678   0.0000000  )
        30           Si  tau(  30) = (  15.3938033   5.1312678  10.2625355  )
        31           Si  tau(  31) = (  15.3938033  15.3938033   0.0000000  )
        32           Si  tau(  32) = (  15.3938033  15.3938033  10.2625355  )
        33           Si  tau(  33) = (   7.6969016   7.6969016   2.5656339  )
        34           Si  tau(  34) = (   7.6969016   7.6969016  12.8281694  )
        35           Si  tau(  35) = (   7.6969016  17.9594371   2.5656339  )
        36           Si  tau(  36) = (   7.6969016  17.9594371  12.8281694  )
        37           Si  tau(  37) = (  17.9594371   7.6969016   2.5656339  )
        38           Si  tau(  38) = (  17.9594371   7.6969016  12.8281694  )
        39           Si  tau(  39) = (  17.9594371  17.9594371   2.5656339  )
        40           Si  tau(  40) = (  17.9594371  17.9594371  12.8281694  )
        41           Si  tau(  41) = (   7.6969016   2.5656339   7.6969016  )
        42           Si  tau(  42) = (   7.6969016   2.5656339  17.9594371  )
        43           Si  tau(  43) = (   7.6969016  12.8281694   7.6969016  )
        44           Si  tau(  44) = (   7.6969016  12.8281694  17.9594371  )
        45           Si  tau(  45) = (  17.9594371   2.5656339   7.6969016  )
        46           Si  tau(  46) = (  17.9594371   2.5656339  17.9594371  )
        47           Si  tau(  47) = (  17.9594371  12.8281694   7.6969016  )
        48           Si  tau(  48) = (  17.9594371  12.8281694  17.9594371  )
        49           Si  tau(  49) = (   2.5656339   7.6969016   7.6969016  )
        50           Si  tau(  50) = (   2.5656339   7.6969016  17.9594371  )
        51           Si  tau(  51) = (   2.5656339  17.9594371   7.6969016  )
        52           Si  tau(  52) = (   2.5656339  17.9594371  17.9594371  )
        53           Si  tau(  53) = (  12.8281694   7.6969016   7.6969016  )
        54           Si  tau(  54) = (  12.8281694   7.6969016  17.9594371  )
        55           Si  tau(  55) = (  12.8281694  17.9594371   7.6969016  )
        56           Si  tau(  56) = (  12.8281694  17.9594371  17.9594371  )
        57           Si  tau(  57) = (   2.5656339   2.5656339   2.5656339  )
        58           Si  tau(  58) = (   2.5656339   2.5656339  12.8281694  )
        59           Si  tau(  59) = (   2.5656339  12.8281694   2.5656339  )
        60           Si  tau(  60) = (   2.5656339  12.8281694  12.8281694  )
        61           Si  tau(  61) = (  12.8281694   2.5656339   2.5656339  )
        62           Si  tau(  62) = (  12.8281694   2.5656339  12.8281694  )
        63           Si  tau(  63) = (  12.8281694  12.8281694   2.5656339  )
        64           Si  tau(  64) = (  12.8281694  12.8281694  12.8281694  )

     number of k points=     1  gaussian smearing, width (Ry)=  0.0010
                       cart. coord. in units 2pi/alat
        k(    1) = (   0.0000000   0.0000000   0.0000000), wk =   2.0000000

     Dense  grid:  1168287 G-vectors     FFT dimensions: ( 135, 135, 135)

     Smooth grid:   104415 G-vectors     FFT dimensions: (  60,  60,  60)

     Estimated max dynamical RAM per process >      85.74 MB

     Estimated total dynamical RAM >       5.36 GB

     Self-consistent Calculation

     iteration #  1     ecut=    20.00 Ry     beta=0.70
     ethr =  1.00E-02
Average number of iterations:     4.000000
     Ef =   0.4647087409646265

     total energy              =    -818.34414663 Ry
     Harris-Foulkes estimate   =       0.00000000 Ry
     estimated scf accuracy    <       2.07615324 Ry

     End of self-consistent calculation

     convergence NOT achieved after   2 iterations: stopping
--------------------------------------------------------------------------------------------------------------------------------------------
name                                                                 count      total        min        max    average    self (%)
--------------------------------------------------------------------------------------------------------------------------------------------
Eigenproblem_elpa1|diag                                           :      6     1.5200     0.0384     0.8420     0.2533     100.00
Eigenproblem_elpa:transform_to_standard                           :      2     1.2761     0.0236     1.2525     0.6381     100.00
qe|electrons                                                      :      1    16.4988    16.4988    16.4988    16.4988       0.00
qe|electrons|init                                                 :      1    13.0905    13.0905    13.0905    13.0905       4.15
qe|electrons|scf                                                  :      1     3.3696     3.3696     3.3696     3.3696       2.95
qe|init_run|hinit0                                                :      1     1.4177     1.4177     1.4177     1.4177       0.01
qe|init_run|hinit0|init_us_1                                      :      1     0.3407     0.3407     0.3407     0.3407     100.00
qe|init_run|hinit0|struc_fact                                     :      1     1.0767     1.0767     1.0767     1.0767     100.00
qe|mix                                                            :      1     0.1032     0.1032     0.1032     0.1032     100.00
qe|run_pwscf                                                      :      1    33.6817    33.6817    33.6817    33.6817       4.63
qe|run_pwscf|electrons                                            :      1    16.5021    16.5021    16.5021    16.5021       0.02
qe|run_pwscf|init_run                                             :      1     5.4094     5.4094     5.4094     5.4094      73.79
qe|run_pwscf|setup                                                :      1     0.7596     0.7596     0.7596     0.7596     100.00
qe|run_pwscf|setup_sirius                                         :      1     9.4524     9.4524     9.4524     9.4524       4.49
qe|v_ha                                                           :      2     0.0230     0.0092     0.0138     0.0115     100.00
qe|v_xc                                                           :      2     0.1206     0.0178     0.1028     0.0603     100.00
qe|veff                                                           :      1     0.2337     0.2337     0.2337     0.2337       7.96
sddk::FFT3D::FFT3D                                                :      2     0.3827     0.0009     0.3818     0.1914     100.00
sddk::FFT3D::prepare                                              :      7     0.0275     0.0000     0.0272     0.0039       0.45
sddk::FFT3D::prepare|cpu                                          :      7     0.0274     0.0000     0.0271     0.0039     100.00
sddk::FFT3D::transform                                            :     48     0.7755     0.0034     0.1780     0.0162       0.89
sddk::FFT3D::transform_xy                                         :     48     0.4933     0.0029     0.0890     0.0103     100.00
sddk::FFT3D::transform_z                                          :     48     0.2753     0.0004     0.0840     0.0057       0.45
sddk::FFT3D::transform_z_serial                                   :     48     0.1379     0.0004     0.0666     0.0029     100.00
sddk::FFT3D::transform_z|comm                                     :     10     0.1361     0.0028     0.0527     0.0136     100.00
sddk::Gvec::find_gvec_shells                                      :      3     0.2552     0.0039     0.2356     0.0851     100.00
sddk::Gvec::init                                                  :      3     0.7428     0.0113     0.6716     0.2476      65.64
sddk::matrix_storage::remap_backward                              :      6     0.0359     0.0028     0.0121     0.0060     100.00
sddk::matrix_storage::remap_forward                               :      7     0.1275     0.0036     0.0556     0.0182     100.00
sddk::remap_gvec_to_shells|init                                   :      1     0.1303     0.1303     0.1303     0.1303     100.00
sddk::wave_functions::inner                                       :     16     0.2357     0.0010     0.1174     0.0147     100.00
sddk::wave_functions::orthogonalize                               :      4     0.6204     0.0093     0.4845     0.1551       0.44
sddk::wave_functions::orthogonalize|potrf                         :      4     0.2800     0.0002     0.2677     0.0700     100.00
sddk::wave_functions::orthogonalize|trtri                         :      4     0.1857     0.0002     0.1777     0.0464     100.00
sddk::wave_functions::transform                                   :     22     0.1764     0.0010     0.0596     0.0080      73.70
sddk::wave_functions::transform|init                              :     22     0.0464     0.0000     0.0443     0.0021     100.00
sirius::Atom_type::init                                           :      2     0.0515     0.0130     0.0384     0.0257     100.00
sirius::Augmentation_operator::generate_pw_coeffs                 :      2     2.1049     1.0075     1.0974     1.0524     100.00
sirius::Band::apply_h_o                                           :      6     1.1244     0.0289     0.7667     0.1874       1.56
sirius::Band::diag_pseudo_potential                               :      1     1.9161     1.9161     1.9161     1.9161       2.05
sirius::Band::diag_pseudo_potential_davidson                      :      1     1.8747     1.8747     1.8747     1.8747       0.28
sirius::Band::diag_pseudo_potential_davidson|evp                  :      5     0.7034     0.0637     0.2137     0.1407       0.04
sirius::Band::diag_pseudo_potential_davidson|iter                 :      1     1.8331     1.8331     1.8331     1.8331       1.42
sirius::Band::diag_pseudo_potential_davidson|update_phi           :      1     0.0148     0.0148     0.0148     0.0148       0.27
sirius::Band::get_o_diag                                          :      1     0.0265     0.0265     0.0265     0.0265     100.00
sirius::Band::initialize_subspace                                 :      1     4.1062     4.1062     4.1062     4.1062      18.40
sirius::Band::initialize_subspace|kp                              :      1     3.1481     3.1481     3.1481     3.1481       2.55
sirius::Band::residuals                                           :      5     0.0794     0.0000     0.0552     0.0159      23.34
sirius::Band::residuals_aux                                       :      4     0.0317     0.0004     0.0283     0.0079     100.00
sirius::Band::set_subspace_mtrx                                   :      8     0.1659     0.0015     0.1260     0.0207       5.58
sirius::Band::solve_for_kset                                      :      1     2.0020     2.0020     2.0020     2.0020       0.74
sirius::Beta_projectors_base::generate                            :      7     0.0529     0.0074     0.0083     0.0076     100.00
sirius::Beta_projectors_base::inner                               :      7     0.4921     0.0018     0.4075     0.0703     100.00
sirius::DFT_ground_state::ewald_energy                            :      1     0.1103     0.1103     0.1103     0.1103     100.00
sirius::Density::add_k_point_contribution_dm                      :      1     0.0829     0.0829     0.0829     0.0829      73.64
sirius::Density::add_k_point_contribution_rg                      :      1     0.0246     0.0246     0.0246     0.0246      52.84
sirius::Density::augment                                          :      1     0.4747     0.4747     0.4747     0.4747       0.03
sirius::Density::generate_pseudo_core_charge_density              :      1     0.8235     0.8235     0.8235     0.8235       0.70
sirius::Density::generate_rho_aug                                 :      1     0.4746     0.4746     0.4746     0.4746       5.29
sirius::Density::generate_rho_aug|gemm                            :      2     0.3783     0.1340     0.2443     0.1892     100.00
sirius::Density::generate_rho_aug|phase_fac                       :      2     0.0247     0.0005     0.0243     0.0124     100.00
sirius::Density::generate_rho_aug|sum                             :      2     0.0464     0.0229     0.0235     0.0232     100.00
sirius::Density::generate_valence                                 :      1     0.8728     0.8728     0.8728     0.8728      27.25
sirius::Density::initial_density                                  :      1     0.6573     0.6573     0.6573     0.6573       2.02
sirius::K_point::generate_gkvec                                   :      1     0.0673     0.0673     0.0673     0.0673      83.24
sirius::K_point::initialize                                       :      1     0.0866     0.0866     0.0866     0.0866      12.11
sirius::K_point_set::add_kpoint                                   :      1     0.0122     0.0122     0.0122     0.0122      99.90
sirius::K_point_set::add_kpoints                                  :      1     0.0122     0.0122     0.0122     0.0122       0.10
sirius::Local_operator::apply_h                                   :      6     0.4093     0.0174     0.2233     0.0682      13.10
sirius::Local_operator::prepare                                   :      4     0.2782     0.0022     0.2027     0.0695       8.52
sirius::Non_local_operator::apply                                 :     12     0.1744     0.0011     0.0905     0.0145     100.00
sirius::Potential::Potential                                      :      1     6.0039     6.0039     6.0039     6.0039       1.34
sirius::Potential::generate_D_operator_matrix                     :      2     0.4140     0.0665     0.3475     0.2070     100.00
sirius::Potential::generate_local_potential                       :      1     5.9236     5.9236     5.9236     5.9236       0.01
sirius::Radial_integrals|aug                                      :      1     0.3396     0.3396     0.3396     0.3396     100.00
sirius::Radial_integrals|beta                                     :      2     4.4664     2.1697     2.2967     2.2332     100.00
sirius::Radial_integrals|rho_core_pseudo                          :      1     0.5865     0.5865     0.5865     0.5865     100.00
sirius::Radial_integrals|rho_pseudo                               :      1     0.4811     0.4811     0.4811     0.4811     100.00
sirius::Radial_integrals|vloc                                     :      1     5.7641     5.7641     5.7641     5.7641     100.00
sirius::Simulation_context::initialize                            :      1     8.9294     8.9294     8.9294     8.9294       0.20
sirius::Simulation_context_base::initialize                       :      1     6.8069     6.8069     6.8069     6.8069       6.91
sirius::Simulation_context_base::make_periodic_function           :      3     0.1870     0.0476     0.0911     0.0623     100.00
sirius::Smooth_periodic_function::fft_transform                   :     11     0.4963     0.0059     0.1836     0.0451       9.27
sirius::Smooth_periodic_function::gather_f_pw                     :      7     0.3677     0.0198     0.0896     0.0525     100.00
sirius::Unit_cell::find_nearest_neighbours                        :      1     0.1902     0.1902     0.1902     0.1902     100.00
sirius::Unit_cell::initialize                                     :      1     0.2591     0.2591     0.2591     0.2591       6.75
sirius_api::sirius_get_pw_coeffs                                  :      4     0.2101     0.0231     0.1029     0.0525      10.61
sirius_api::sirius_set_pw_coeffs                                  :      5     0.3565     0.0378     0.1092     0.0713      71.45
--------------------------------------------------------------------------------------------------------------------------------------------
+global_timer (   34.0569s, 1.10 % of self, 100.00 % of total)
|--qe|run_pwscf (   33.6817s, 98.90 %) 
qe|electrons (   16.4988s, 0.00 % of self, 48.44 % of total)
|--qe|electrons|init (   13.0905s, 79.34 %) 
|--qe|electrons|scf (    3.3696s, 20.42 %) 
|--sirius_api::sirius_set_pw_coeffs (    0.0386s, 0.23 %) 
qe|electrons|init (   13.0905s, 4.15 % of self, 38.44 % of total)
|--sirius::Potential::Potential (    6.0039s, 45.86 %) 
|--sirius::Band::initialize_subspace (    4.1062s, 31.37 %) 
|--sirius::Density::generate_pseudo_core_charge_density (    0.8235s, 6.29 %) 
|--sirius::Density::initial_density (    0.6573s, 5.02 %) 
|--sirius::Potential::generate_D_operator_matrix (    0.3475s, 2.65 %) 
|--sirius_api::sirius_set_pw_coeffs (    0.1963s, 1.50 %) 
|--sirius_api::sirius_get_pw_coeffs (    0.1764s, 1.35 %) 
|--sirius::DFT_ground_state::ewald_energy (    0.1103s, 0.84 %) 
|--qe|v_xc (    0.1028s, 0.79 %) 
|--qe|v_ha (    0.0138s, 0.11 %) 
|--sirius::Band::Band (    0.0099s, 0.08 %) 
qe|electrons|scf (    3.3696s, 2.95 % of self, 9.89 % of total)
|--sirius::Band::solve_for_kset (    2.0020s, 59.41 %) 
|--sirius::Density::generate_valence (    0.8728s, 25.90 %) 
|--qe|veff (    0.2337s, 6.94 %) 
|--qe|mix (    0.1032s, 3.06 %) 
|--sirius_api::sirius_get_pw_coeffs (    0.0337s, 1.00 %) 
|--sirius::Smooth_periodic_function::fft_transform (    0.0224s, 0.67 %) 
|--sirius::Periodic_function::inner (    0.0023s, 0.07 %) 
qe|init_run|hinit0 (    1.4177s, 0.01 % of self, 4.16 % of total)
|--qe|init_run|hinit0|struc_fact (    1.0767s, 75.95 %) 
|--qe|init_run|hinit0|init_us_1 (    0.3407s, 24.03 %) 
|--qe|init_run|hinit0|init_igk (    0.0001s, 0.01 %) 
|--qe|init_run|hinit0|init_vloc (    0.0000s, 0.00 %) 
|--qe|init_run|hinit0|setlocal (    0.0000s, 0.00 %) 
|--qe|init_run|hinit0|init_at_1 (    0.0000s, 0.00 %) 
|--qe|init_run|hinit0|set_rhoc (    0.0000s, 0.00 %) 
qe|run_pwscf (   33.6817s, 4.63 % of self, 98.90 % of total)
|--qe|run_pwscf|electrons (   16.5021s, 48.99 %) 
|--qe|run_pwscf|setup_sirius (    9.4524s, 28.06 %) 
|--qe|run_pwscf|init_run (    5.4094s, 16.06 %) 
|--qe|run_pwscf|setup (    0.7596s, 2.26 %) 
qe|run_pwscf|electrons (   16.5021s, 0.02 % of self, 48.45 % of total)
|--qe|electrons (   16.4988s, 99.98 %) 
qe|run_pwscf|init_run (    5.4094s, 73.79 % of self, 15.88 % of total)
|--qe|init_run|hinit0 (    1.4177s, 26.21 %) 
|--qe|init_run|potinit (    0.0000s, 0.00 %) 
|--qe|init_run|newd (    0.0000s, 0.00 %) 
qe|run_pwscf|setup_sirius (    9.4524s, 4.49 % of self, 27.75 % of total)
|--sirius::Simulation_context::initialize (    8.9294s, 94.47 %) 
|--sirius::K_point::initialize (    0.0866s, 0.92 %) 
|--sirius::K_point_set::add_kpoints (    0.0122s, 0.13 %) 
|--sirius::K_point_set::K_point_set (    0.0000s, 0.00 %) 
sddk::FFT3D::transform (    0.7755s, 0.89 % of self, 2.28 % of total)
|--sddk::FFT3D::transform_xy (    0.4933s, 63.61 %) 
|--sddk::FFT3D::transform_z (    0.2753s, 35.50 %) 
sddk::Gvec::init (    0.7428s, 65.64 % of self, 2.18 % of total)
|--sddk::Gvec::find_gvec_shells (    0.2552s, 34.36 %) 
sddk::wave_functions::orthogonalize (    0.6204s, 0.44 % of self, 1.82 % of total)
|--sddk::wave_functions::orthogonalize|potrf (    0.2800s, 45.13 %) 
|--sddk::wave_functions::orthogonalize|trtri (    0.1857s, 29.93 %) 
|--sddk::wave_functions::inner (    0.0790s, 12.74 %) 
|--sddk::wave_functions::transform (    0.0729s, 11.76 %) 
sirius::Band::apply_h_o (    1.1244s, 1.56 % of self, 3.30 % of total)
|--sirius::Beta_projectors_base::inner (    0.4779s, 42.50 %) 
|--sirius::Local_operator::apply_h (    0.4093s, 36.40 %) 
|--sirius::Non_local_operator::apply (    0.1744s, 15.51 %) 
|--sirius::Beta_projectors_base::generate (    0.0452s, 4.02 %) 
sirius::Band::diag_pseudo_potential (    1.9161s, 2.05 % of self, 5.63 % of total)
|--sirius::Band::diag_pseudo_potential_davidson (    1.8747s, 97.84 %) 
|--sirius::Local_operator::prepare (    0.0022s, 0.11 %) 
|--sddk::FFT3D::prepare (    0.0001s, 0.00 %) 
|--sirius::Non_local_operator::Non_local_operator (    0.0000s, 0.00 %) 
sirius::Band::diag_pseudo_potential_davidson (    1.8747s, 0.28 % of self, 5.50 % of total)
|--sirius::Band::diag_pseudo_potential_davidson|iter (    1.8331s, 97.78 %) 
|--sirius::Band::get_o_diag (    0.0265s, 1.41 %) 
|--sirius::Band::diag_pseudo_potential_davidson|wf (    0.0061s, 0.33 %) 
|--sirius::Band::get_h_diag (    0.0037s, 0.20 %) 
|--sirius::Band::diag_pseudo_potential_davidson|alloc (    0.0001s, 0.01 %) 
|--sirius::Beta_projectors_base::dismiss (    0.0000s, 0.00 %) 
sirius::Band::diag_pseudo_potential_davidson|evp (    0.7034s, 0.04 % of self, 2.07 % of total)
|--Eigenproblem_elpa1|diag (    0.6780s, 96.39 %) 
|--Eigenproblem_elpa:transform_to_standard (    0.0236s, 3.36 %) 
|--Eigenproblem_elpa:transform_back (    0.0015s, 0.22 %) 
sirius::Band::diag_pseudo_potential_davidson|iter (    1.8331s, 1.42 % of self, 5.38 % of total)
|--sirius::Band::diag_pseudo_potential_davidson|evp (    0.7034s, 38.37 %) 
|--sddk::wave_functions::orthogonalize (    0.6204s, 33.84 %) 
|--sirius::Band::apply_h_o (    0.3577s, 19.51 %) 
|--sirius::Band::residuals (    0.0794s, 4.33 %) 
|--sirius::Band::set_subspace_mtrx (    0.0313s, 1.71 %) 
|--sirius::Band::diag_pseudo_potential_davidson|update_phi (    0.0148s, 0.81 %) 
sirius::Band::initialize_subspace (    4.1062s, 18.40 % of self, 12.06 % of total)
|--sirius::Band::initialize_subspace|kp (    3.1481s, 76.67 %) 
|--sirius::Local_operator::prepare (    0.2027s, 4.94 %) 
sirius::Band::initialize_subspace|kp (    3.1481s, 2.55 % of self, 9.24 % of total)
|--Eigenproblem_elpa:transform_to_standard (    1.2525s, 39.79 %) 
|--Eigenproblem_elpa1|diag (    0.8420s, 26.75 %) 
|--sirius::Band::apply_h_o (    0.7667s, 24.35 %) 
|--sirius::Band::set_subspace_mtrx (    0.1346s, 4.28 %) 
|--sddk::wave_functions::transform (    0.0596s, 1.89 %) 
|--sirius::Band::initialize_subspace|kp|wf (    0.0066s, 0.21 %) 
|--Eigenproblem_elpa:transform_back (    0.0027s, 0.09 %) 
|--sirius::Local_operator::prepare (    0.0022s, 0.07 %) 
|--sddk::matrix_storage::matrix_storage (    0.0008s, 0.03 %) 
|--sddk::FFT3D::prepare (    0.0000s, 0.00 %) 
|--sirius::Non_local_operator::Non_local_operator (    0.0000s, 0.00 %) 
|--sirius::Beta_projectors_base::prepare (    0.0000s, 0.00 %) 
|--sirius::Beta_projectors_base::dismiss (    0.0000s, 0.00 %) 
sirius::Band::solve_for_kset (    2.0020s, 0.74 % of self, 5.88 % of total)
|--sirius::Band::diag_pseudo_potential (    1.9161s, 95.71 %) 
|--sirius::Local_operator::prepare (    0.0711s, 3.55 %) 
|--sirius::K_point_set::sync_band_energies (    0.0000s, 0.00 %) 
sirius::Density::augment (    0.4747s, 0.03 % of self, 1.39 % of total)
|--sirius::Density::generate_rho_aug (    0.4746s, 99.97 %) 
sirius::Density::generate_pseudo_core_charge_density (    0.8235s, 0.70 % of self, 2.42 % of total)
|--sirius::Radial_integrals|rho_core_pseudo (    0.5865s, 71.23 %) 
|--sirius::Smooth_periodic_function::fft_transform (    0.1836s, 22.30 %) 
|--sirius::Simulation_context_base::make_periodic_function (    0.0476s, 5.78 %) 
sirius::Density::generate_rho_aug (    0.4746s, 5.29 % of self, 1.39 % of total)
|--sirius::Density::generate_rho_aug|gemm (    0.3783s, 79.71 %) 
|--sirius::Density::generate_rho_aug|sum (    0.0464s, 9.78 %) 
|--sirius::Density::generate_rho_aug|phase_fac (    0.0247s, 5.21 %) 
sirius::Density::generate_valence (    0.8728s, 27.25 % of self, 2.56 % of total)
|--sirius::Density::augment (    0.4747s, 54.39 %) 
|--sirius::Density::add_k_point_contribution_dm (    0.0829s, 9.50 %) 
|--sirius::Smooth_periodic_function::gather_f_pw (    0.0380s, 4.36 %) 
|--sirius::Density::add_k_point_contribution_rg (    0.0246s, 2.82 %) 
|--sddk::matrix_storage::remap_forward (    0.0088s, 1.01 %) 
|--sirius::Smooth_periodic_function::fft_transform (    0.0059s, 0.67 %) 
|--sddk::FFT3D::prepare (    0.0001s, 0.01 %) 
sirius::Density::initial_density (    0.6573s, 2.02 % of self, 1.93 % of total)
|--sirius::Radial_integrals|rho_pseudo (    0.4811s, 73.19 %) 
|--sirius::Smooth_periodic_function::fft_transform (    0.1146s, 17.43 %) 
|--sirius::Simulation_context_base::make_periodic_function (    0.0484s, 7.36 %) 
sirius::Local_operator::apply_h (    0.4093s, 13.10 % of self, 1.20 % of total)
|--sddk::FFT3D::transform (    0.2011s, 49.14 %) 
|--sddk::matrix_storage::remap_forward (    0.1187s, 29.01 %) 
|--sddk::matrix_storage::remap_backward (    0.0359s, 8.76 %) 
sirius::Potential::Potential (    6.0039s, 1.34 % of self, 17.63 % of total)
|--sirius::Potential::generate_local_potential (    5.9236s, 98.66 %) 
|--sirius::Potential::init (    0.0000s, 0.00 %) 
sirius::Potential::generate_local_potential (    5.9236s, 0.01 % of self, 17.39 % of total)
|--sirius::Radial_integrals|vloc (    5.7641s, 97.31 %) 
|--sirius::Simulation_context_base::make_periodic_function (    0.0911s, 1.54 %) 
|--sirius::Smooth_periodic_function::fft_transform (    0.0680s, 1.15 %) 
sirius::Simulation_context::initialize (    8.9294s, 0.20 % of self, 26.22 % of total)
|--sirius::Simulation_context_base::initialize (    6.8069s, 76.23 %) 
|--sirius::Augmentation_operator::generate_pw_coeffs (    2.1049s, 23.57 %) 
sirius::Simulation_context_base::initialize (    6.8069s, 6.91 % of self, 19.99 % of total)
|--sirius::Radial_integrals|beta (    4.4664s, 65.62 %) 
|--sddk::Gvec::init (    0.7315s, 10.75 %) 
|--sddk::FFT3D::FFT3D (    0.3827s, 5.62 %) 
|--sirius::Radial_integrals|aug (    0.3396s, 4.99 %) 
|--sirius::Unit_cell::initialize (    0.2591s, 3.81 %) 
|--sddk::remap_gvec_to_shells|init (    0.1303s, 1.91 %) 
|--sddk::FFT3D::prepare (    0.0272s, 0.40 %) 
sirius::Smooth_periodic_function::fft_transform (    0.4963s, 9.27 % of self, 1.46 % of total)
|--sddk::FFT3D::transform (    0.4503s, 90.73 %) 
sirius_api::sirius_set_pw_coeffs (    0.3565s, 71.45 % of self, 1.05 % of total)
|--sirius::Smooth_periodic_function::fft_transform (    0.1018s, 28.55 %) 

     init_run     :      5.29s CPU      5.38s WALL (       1 calls)

     Called by init_run:

     Called by electrons:
     v_of_rho     :      0.14s CPU      0.16s WALL (       2 calls)
     mix_rho      :      0.03s CPU      0.10s WALL (       1 calls)
     sym_rho      :      0.03s CPU      0.05s WALL (       1 calls)

     Called by c_bands:

     Called by sum_band:

     Called by *egterg:

     Called by h_psi:

     General routines
     fft          :      0.18s CPU      0.37s WALL (      12 calls)

     Parallel routines
     fft_scatter  :      0.12s CPU      0.08s WALL (      12 calls)

     PWSCF        :    38.72s CPU        35.07s WALL


   This run was terminated on:  10: 9:51  22Sep2017            

=------------------------------------------------------------------------------=
   JOB DONE.
=------------------------------------------------------------------------------=
Note: The following floating-point exceptions are signalling: IEEE_INVALID_FLAG IEEE_DIVIDE_BY_ZERO IEEE_UNDERFLOW_FLAG IEEE_DENORMAL
STOP 2
Note: The following floating-point exceptions are signalling: IEEE_INVALID_FLAG IEEE_DIVIDE_BY_ZERO IEEE_UNDERFLOW_FLAG IEEE_DENORMAL
STOP 2
Note: The following floating-point exceptions are signalling: IEEE_INVALID_FLAG IEEE_DIVIDE_BY_ZERO IEEE_UNDERFLOW_FLAG IEEE_DENORMAL
STOP 2
Note: The following floating-point exceptions are signalling: IEEE_INVALID_FLAG IEEE_DIVIDE_BY_ZERO IEEE_UNDERFLOW_FLAG IEEE_DENORMAL
STOP 2
Note: The following floating-point exceptions are signalling: IEEE_INVALID_FLAG IEEE_DIVIDE_BY_ZERO IEEE_UNDERFLOW_FLAG IEEE_DENORMAL
STOP 2
Note: The following floating-point exceptions are signalling: IEEE_INVALID_FLAG IEEE_DIVIDE_BY_ZERO IEEE_UNDERFLOW_FLAG IEEE_DENORMAL
STOP 2
Note: The following floating-point exceptions are signalling: IEEE_INVALID_FLAG IEEE_DIVIDE_BY_ZERO IEEE_UNDERFLOW_FLAG IEEE_DENORMAL
STOP 2
Note: The following floating-point exceptions are signalling: IEEE_INVALID_FLAG IEEE_DIVIDE_BY_ZERO IEEE_UNDERFLOW_FLAG IEEE_DENORMAL
STOP 2
Note: The following floating-point exceptions are signalling: IEEE_INVALID_FLAG IEEE_UNDERFLOW_FLAG IEEE_DENORMAL
STOP 2
Note: The following floating-point exceptions are signalling: IEEE_INVALID_FLAG IEEE_DIVIDE_BY_ZERO IEEE_UNDERFLOW_FLAG IEEE_DENORMAL
STOP 2
Note: The following floating-point exceptions are signalling: IEEE_INVALID_FLAG IEEE_DIVIDE_BY_ZERO IEEE_UNDERFLOW_FLAG IEEE_DENORMAL
STOP 2
Note: The following floating-point exceptions are signalling: IEEE_INVALID_FLAG IEEE_DIVIDE_BY_ZERO IEEE_UNDERFLOW_FLAG IEEE_DENORMAL
STOP 2
Note: The following floating-point exceptions are signalling: IEEE_INVALID_FLAG IEEE_DIVIDE_BY_ZERO IEEE_UNDERFLOW_FLAG IEEE_DENORMAL
STOP 2
Note: The following floating-point exceptions are signalling: IEEE_INVALID_FLAG IEEE_DIVIDE_BY_ZERO IEEE_UNDERFLOW_FLAG IEEE_DENORMAL
STOP 2
Note: The following floating-point exceptions are signalling: IEEE_INVALID_FLAG IEEE_UNDERFLOW_FLAG IEEE_DENORMAL
STOP 2
Note: The following floating-point exceptions are signalling: IEEE_INVALID_FLAG IEEE_DIVIDE_BY_ZERO IEEE_UNDERFLOW_FLAG IEEE_DENORMAL
STOP 2
Note: The following floating-point exceptions are signalling: IEEE_INVALID_FLAG IEEE_UNDERFLOW_FLAG IEEE_DENORMAL
STOP 2
Note: The following floating-point exceptions are signalling: IEEE_INVALID_FLAG IEEE_DIVIDE_BY_ZERO IEEE_UNDERFLOW_FLAG IEEE_DENORMAL
STOP 2
Note: The following floating-point exceptions are signalling: IEEE_INVALID_FLAG IEEE_DIVIDE_BY_ZERO IEEE_UNDERFLOW_FLAG IEEE_DENORMAL
STOP 2
Note: The following floating-point exceptions are signalling: IEEE_INVALID_FLAG IEEE_DIVIDE_BY_ZERO IEEE_UNDERFLOW_FLAG IEEE_DENORMAL
STOP 2
Note: The following floating-point exceptions are signalling: IEEE_INVALID_FLAG IEEE_DIVIDE_BY_ZERO IEEE_UNDERFLOW_FLAG IEEE_DENORMAL
STOP 2
Note: The following floating-point exceptions are signalling: IEEE_INVALID_FLAG IEEE_DIVIDE_BY_ZERO IEEE_UNDERFLOW_FLAG IEEE_DENORMAL
STOP 2
Note: The following floating-point exceptions are signalling: IEEE_INVALID_FLAG IEEE_DIVIDE_BY_ZERO IEEE_UNDERFLOW_FLAG IEEE_DENORMAL
STOP 2
Note: The following floating-point exceptions are signalling: IEEE_INVALID_FLAG IEEE_DIVIDE_BY_ZERO IEEE_UNDERFLOW_FLAG IEEE_DENORMAL
STOP 2
Note: The following floating-point exceptions are signalling: IEEE_INVALID_FLAG IEEE_DIVIDE_BY_ZERO IEEE_UNDERFLOW_FLAG IEEE_DENORMAL
STOP 2
Note: The following floating-point exceptions are signalling: IEEE_INVALID_FLAG IEEE_DIVIDE_BY_ZERO IEEE_UNDERFLOW_FLAG IEEE_DENORMAL
STOP 2
Note: The following floating-point exceptions are signalling: IEEE_INVALID_FLAG IEEE_DIVIDE_BY_ZERO IEEE_UNDERFLOW_FLAG IEEE_DENORMAL
STOP 2
Note: The following floating-point exceptions are signalling: IEEE_INVALID_FLAG IEEE_DIVIDE_BY_ZERO IEEE_UNDERFLOW_FLAG IEEE_DENORMAL
STOP 2
Note: The following floating-point exceptions are signalling: IEEE_INVALID_FLAG IEEE_UNDERFLOW_FLAG IEEE_DENORMAL
STOP 2
Note: The following floating-point exceptions are signalling: IEEE_INVALID_FLAG IEEE_UNDERFLOW_FLAG IEEE_DENORMAL
STOP 2
Note: The following floating-point exceptions are signalling: IEEE_INVALID_FLAG IEEE_UNDERFLOW_FLAG IEEE_DENORMAL
STOP 2
Note: The following floating-point exceptions are signalling: IEEE_INVALID_FLAG IEEE_DIVIDE_BY_ZERO IEEE_UNDERFLOW_FLAG IEEE_DENORMAL
STOP 2
Note: The following floating-point exceptions are signalling: IEEE_INVALID_FLAG IEEE_UNDERFLOW_FLAG IEEE_DENORMAL
STOP 2
Note: The following floating-point exceptions are signalling: IEEE_INVALID_FLAG IEEE_DIVIDE_BY_ZERO IEEE_UNDERFLOW_FLAG IEEE_DENORMAL
STOP 2
Note: The following floating-point exceptions are signalling: IEEE_INVALID_FLAG IEEE_UNDERFLOW_FLAG IEEE_DENORMAL
STOP 2
Note: The following floating-point exceptions are signalling: IEEE_INVALID_FLAG IEEE_DIVIDE_BY_ZERO IEEE_UNDERFLOW_FLAG IEEE_DENORMAL
STOP 2
Note: The following floating-point exceptions are signalling: IEEE_INVALID_FLAG IEEE_DIVIDE_BY_ZERO IEEE_UNDERFLOW_FLAG IEEE_DENORMAL
STOP 2
Note: The following floating-point exceptions are signalling: IEEE_INVALID_FLAG IEEE_DIVIDE_BY_ZERO IEEE_UNDERFLOW_FLAG IEEE_DENORMAL
STOP 2
Note: The following floating-point exceptions are signalling: IEEE_INVALID_FLAG IEEE_DIVIDE_BY_ZERO IEEE_UNDERFLOW_FLAG IEEE_DENORMAL
STOP 2
Note: The following floating-point exceptions are signalling: IEEE_INVALID_FLAG IEEE_DIVIDE_BY_ZERO IEEE_UNDERFLOW_FLAG IEEE_DENORMAL
STOP 2
Note: The following floating-point exceptions are signalling: IEEE_INVALID_FLAG IEEE_DIVIDE_BY_ZERO IEEE_UNDERFLOW_FLAG IEEE_DENORMAL
STOP 2
Note: The following floating-point exceptions are signalling: IEEE_INVALID_FLAG IEEE_DIVIDE_BY_ZERO IEEE_UNDERFLOW_FLAG IEEE_DENORMAL
STOP 2
Note: The following floating-point exceptions are signalling: IEEE_INVALID_FLAG IEEE_DIVIDE_BY_ZERO IEEE_UNDERFLOW_FLAG IEEE_DENORMAL
STOP 2
Note: The following floating-point exceptions are signalling: IEEE_INVALID_FLAG IEEE_DIVIDE_BY_ZERO IEEE_UNDERFLOW_FLAG IEEE_DENORMAL
STOP 2
Note: The following floating-point exceptions are signalling: IEEE_INVALID_FLAG IEEE_UNDERFLOW_FLAG IEEE_DENORMAL
STOP 2
Note: The following floating-point exceptions are signalling: IEEE_INVALID_FLAG IEEE_UNDERFLOW_FLAG IEEE_DENORMAL
STOP 2
Note: The following floating-point exceptions are signalling: IEEE_INVALID_FLAG IEEE_UNDERFLOW_FLAG IEEE_DENORMAL
STOP 2
Note: The following floating-point exceptions are signalling: IEEE_INVALID_FLAG IEEE_UNDERFLOW_FLAG IEEE_DENORMAL
STOP 2
Note: The following floating-point exceptions are signalling: IEEE_INVALID_FLAG IEEE_UNDERFLOW_FLAG IEEE_DENORMAL
STOP 2
Note: The following floating-point exceptions are signalling: IEEE_INVALID_FLAG IEEE_DIVIDE_BY_ZERO IEEE_UNDERFLOW_FLAG IEEE_DENORMAL
STOP 2
Note: The following floating-point exceptions are signalling: IEEE_INVALID_FLAG IEEE_DIVIDE_BY_ZERO IEEE_UNDERFLOW_FLAG IEEE_DENORMAL
STOP 2
Note: The following floating-point exceptions are signalling: IEEE_INVALID_FLAG IEEE_UNDERFLOW_FLAG IEEE_DENORMAL
STOP 2
Note: The following floating-point exceptions are signalling: IEEE_INVALID_FLAG IEEE_DIVIDE_BY_ZERO IEEE_UNDERFLOW_FLAG IEEE_DENORMAL
STOP 2
Note: The following floating-point exceptions are signalling: IEEE_INVALID_FLAG IEEE_UNDERFLOW_FLAG IEEE_DENORMAL
STOP 2
Note: The following floating-point exceptions are signalling: IEEE_INVALID_FLAG IEEE_DIVIDE_BY_ZERO IEEE_UNDERFLOW_FLAG IEEE_DENORMAL
STOP 2
Note: The following floating-point exceptions are signalling: IEEE_INVALID_FLAG IEEE_DIVIDE_BY_ZERO IEEE_UNDERFLOW_FLAG IEEE_DENORMAL
STOP 2
Note: The following floating-point exceptions are signalling: IEEE_INVALID_FLAG IEEE_DIVIDE_BY_ZERO IEEE_UNDERFLOW_FLAG IEEE_DENORMAL
STOP 2
Note: The following floating-point exceptions are signalling: IEEE_INVALID_FLAG IEEE_DIVIDE_BY_ZERO IEEE_UNDERFLOW_FLAG IEEE_DENORMAL
STOP 2
Note: The following floating-point exceptions are signalling: IEEE_INVALID_FLAG IEEE_UNDERFLOW_FLAG IEEE_DENORMAL
STOP 2
Note: The following floating-point exceptions are signalling: IEEE_INVALID_FLAG IEEE_UNDERFLOW_FLAG IEEE_DENORMAL
STOP 2
Note: The following floating-point exceptions are signalling: IEEE_INVALID_FLAG IEEE_UNDERFLOW_FLAG IEEE_DENORMAL
STOP 2
Note: The following floating-point exceptions are signalling: IEEE_INVALID_FLAG IEEE_UNDERFLOW_FLAG IEEE_DENORMAL
STOP 2
Note: The following floating-point exceptions are signalling: IEEE_INVALID_FLAG IEEE_UNDERFLOW_FLAG IEEE_DENORMAL
STOP 2
Note: The following floating-point exceptions are signalling: IEEE_INVALID_FLAG IEEE_UNDERFLOW_FLAG IEEE_DENORMAL
STOP 2
srun: error: nid00002: task 9: Exited with exit code 2
srun: Terminating job step 681669.0
srun: Job step aborted: Waiting up to 32 seconds for job step to finish.
slurmstepd: error: *** STEP 681669.0 ON nid00002 CANCELLED AT 2017-09-22T10:09:52 ***
srun: error: nid00003: tasks 32-63: Exited with exit code 2
srun: error: nid00002: tasks 0-8,10-31: Exited with exit code 2
