srun -n 16 -c 4 --unbuffered --hint=nomultithread ../../../../q-e/PW/src/pw.x -i pw.in -ndiag 16 -npool 1

     Program PWSCF v.6.1 starts on 22Sep2017 at 10: 8:55 

     This program is part of the open-source Quantum ESPRESSO suite
     for quantum simulation of materials; please cite
         "P. Giannozzi et al., J. Phys.:Condens. Matter 21 395502 (2009);
          URL http://www.quantum-espresso.org", 
     in publications or presentations arising from this work. More details at
     http://www.quantum-espresso.org/quote

     Parallel version (MPI & OpenMP), running on      64 processor cores
     Number of MPI processes:                16
     Threads/MPI process:                     4
     R & G space division:  proc/nbgrp/npool/nimage =      16
     Reading input from pw.in
     Message from routine read_cards :
     DEPRECATED: no units specified in CELL_PARAMETERS card
SIRIUS 4.8, git hash: 551de771a30cd15b2939e16597f7a14067616a3f

     Current dimensions of program PWSCF are:
     Max number of different atomic species (ntypx) = 10
     Max number of k-points (npk) =  40000
     Max angular momentum in pseudopotentials (lmaxx) =  3

     Subspace diagonalization in iterative solution of the eigenvalue problem:
     one sub-group per band group will be used
     custom distributed-memory algorithm (size of sub-group:  4*  4 procs)


   Info: using nr1, nr2, nr3 values from input

     Parallelization info
     --------------------
     sticks:   dense  smooth     PW     G-vecs:    dense   smooth      PW
     Min         839     168     42                73017     6525     820
     Max         840     170     43                73020     6527     823
     Sum       13429    2701    673              1168287   104415   13133



     bravais-lattice index     =            0
     lattice parameter (alat)  =       1.0000  a.u.
     unit-cell volume          =    8646.7719 (a.u.)^3
     number of atoms/cell      =           64
     number of atomic types    =            2
     number of electrons       =       266.00
     number of Kohn-Sham states=          160
     kinetic-energy cutoff     =      20.0000  Ry
     charge density cutoff     =     400.0000  Ry
     convergence threshold     =      1.0E-11
     mixing beta               =       0.7000
     number of iterations used =            8  plain     mixing
     Exchange-correlation      = SLA  PZ   NOGX NOGC ( 1  1  0  0 0 0)

     celldm(1)=   1.000000  celldm(2)=   0.000000  celldm(3)=   0.000000
     celldm(4)=   0.000000  celldm(5)=   0.000000  celldm(6)=   0.000000

     crystal axes: (cart. coord. in units of alat)
               a(1) = (  20.525071   0.000000   0.000000 )  
               a(2) = (   0.000000  20.525071   0.000000 )  
               a(3) = (   0.000000   0.000000  20.525071 )  

     reciprocal axes: (cart. coord. in units 2 pi/alat)
               b(1) = (  0.048721  0.000000  0.000000 )  
               b(2) = (  0.000000  0.048721  0.000000 )  
               b(3) = (  0.000000  0.000000  0.048721 )  


     PseudoPot. # 1 for Ge read from file:
     ./ge_lda_v1.4.uspp.F.UPF
     MD5 check sum: bf9d52b59cc8a669818bb2b52e0c2ba0
     Pseudo is Ultrasoft + core correction, Zval = 14.0
     Generated by new atomic code, or converted to UPF format
     Using radial grid of  873 points,  6 beta functions with: 
                l(1) =   0
                l(2) =   0
                l(3) =   1
                l(4) =   1
                l(5) =   2
                l(6) =   2
     Q(r) pseudized with  8 coefficients,  rinner =    1.400   1.400   1.400
                                                       1.400   1.400

     PseudoPot. # 2 for Si read from file:
     ./si_lda_v1.uspp.F.UPF
     MD5 check sum: b5ade7b37ee992b02096e360e546dc2d
     Pseudo is Ultrasoft + core correction, Zval =  4.0
     Generated by new atomic code, or converted to UPF format
     Using radial grid of  899 points,  6 beta functions with: 
                l(1) =   0
                l(2) =   0
                l(3) =   1
                l(4) =   1
                l(5) =   2
                l(6) =   2
     Q(r) pseudized with  8 coefficients,  rinner =    0.900   0.900   0.900
                                                       0.900   0.900

     atomic species   valence    mass     pseudopotential
        Ge            14.00    72.61000     Ge( 1.00)
        Si             4.00    28.08550     Si( 1.00)

     24 Sym. Ops. (no inversion) found



   Cartesian axes

     site n.     atom                  positions (a.u.)
         1           Ge  tau(   1) = (   0.0000000   0.0000000   0.0000000  )
         2           Si  tau(   2) = (   0.0000000   0.0000000  10.2625355  )
         3           Si  tau(   3) = (   0.0000000  10.2625355   0.0000000  )
         4           Si  tau(   4) = (   0.0000000  10.2625355  10.2625355  )
         5           Si  tau(   5) = (  10.2625355   0.0000000   0.0000000  )
         6           Si  tau(   6) = (  10.2625355   0.0000000  10.2625355  )
         7           Si  tau(   7) = (  10.2625355  10.2625355   0.0000000  )
         8           Si  tau(   8) = (  10.2625355  10.2625355  10.2625355  )
         9           Si  tau(   9) = (   0.0000000   5.1312678   5.1312678  )
        10           Si  tau(  10) = (   0.0000000   5.1312678  15.3938033  )
        11           Si  tau(  11) = (   0.0000000  15.3938033   5.1312678  )
        12           Si  tau(  12) = (   0.0000000  15.3938033  15.3938033  )
        13           Si  tau(  13) = (  10.2625355   5.1312678   5.1312678  )
        14           Si  tau(  14) = (  10.2625355   5.1312678  15.3938033  )
        15           Si  tau(  15) = (  10.2625355  15.3938033   5.1312678  )
        16           Si  tau(  16) = (  10.2625355  15.3938033  15.3938033  )
        17           Si  tau(  17) = (   5.1312678   0.0000000   5.1312678  )
        18           Si  tau(  18) = (   5.1312678   0.0000000  15.3938033  )
        19           Si  tau(  19) = (   5.1312678  10.2625355   5.1312678  )
        20           Si  tau(  20) = (   5.1312678  10.2625355  15.3938033  )
        21           Si  tau(  21) = (  15.3938033   0.0000000   5.1312678  )
        22           Si  tau(  22) = (  15.3938033   0.0000000  15.3938033  )
        23           Si  tau(  23) = (  15.3938033  10.2625355   5.1312678  )
        24           Si  tau(  24) = (  15.3938033  10.2625355  15.3938033  )
        25           Si  tau(  25) = (   5.1312678   5.1312678   0.0000000  )
        26           Si  tau(  26) = (   5.1312678   5.1312678  10.2625355  )
        27           Si  tau(  27) = (   5.1312678  15.3938033   0.0000000  )
        28           Si  tau(  28) = (   5.1312678  15.3938033  10.2625355  )
        29           Si  tau(  29) = (  15.3938033   5.1312678   0.0000000  )
        30           Si  tau(  30) = (  15.3938033   5.1312678  10.2625355  )
        31           Si  tau(  31) = (  15.3938033  15.3938033   0.0000000  )
        32           Si  tau(  32) = (  15.3938033  15.3938033  10.2625355  )
        33           Si  tau(  33) = (   7.6969016   7.6969016   2.5656339  )
        34           Si  tau(  34) = (   7.6969016   7.6969016  12.8281694  )
        35           Si  tau(  35) = (   7.6969016  17.9594371   2.5656339  )
        36           Si  tau(  36) = (   7.6969016  17.9594371  12.8281694  )
        37           Si  tau(  37) = (  17.9594371   7.6969016   2.5656339  )
        38           Si  tau(  38) = (  17.9594371   7.6969016  12.8281694  )
        39           Si  tau(  39) = (  17.9594371  17.9594371   2.5656339  )
        40           Si  tau(  40) = (  17.9594371  17.9594371  12.8281694  )
        41           Si  tau(  41) = (   7.6969016   2.5656339   7.6969016  )
        42           Si  tau(  42) = (   7.6969016   2.5656339  17.9594371  )
        43           Si  tau(  43) = (   7.6969016  12.8281694   7.6969016  )
        44           Si  tau(  44) = (   7.6969016  12.8281694  17.9594371  )
        45           Si  tau(  45) = (  17.9594371   2.5656339   7.6969016  )
        46           Si  tau(  46) = (  17.9594371   2.5656339  17.9594371  )
        47           Si  tau(  47) = (  17.9594371  12.8281694   7.6969016  )
        48           Si  tau(  48) = (  17.9594371  12.8281694  17.9594371  )
        49           Si  tau(  49) = (   2.5656339   7.6969016   7.6969016  )
        50           Si  tau(  50) = (   2.5656339   7.6969016  17.9594371  )
        51           Si  tau(  51) = (   2.5656339  17.9594371   7.6969016  )
        52           Si  tau(  52) = (   2.5656339  17.9594371  17.9594371  )
        53           Si  tau(  53) = (  12.8281694   7.6969016   7.6969016  )
        54           Si  tau(  54) = (  12.8281694   7.6969016  17.9594371  )
        55           Si  tau(  55) = (  12.8281694  17.9594371   7.6969016  )
        56           Si  tau(  56) = (  12.8281694  17.9594371  17.9594371  )
        57           Si  tau(  57) = (   2.5656339   2.5656339   2.5656339  )
        58           Si  tau(  58) = (   2.5656339   2.5656339  12.8281694  )
        59           Si  tau(  59) = (   2.5656339  12.8281694   2.5656339  )
        60           Si  tau(  60) = (   2.5656339  12.8281694  12.8281694  )
        61           Si  tau(  61) = (  12.8281694   2.5656339   2.5656339  )
        62           Si  tau(  62) = (  12.8281694   2.5656339  12.8281694  )
        63           Si  tau(  63) = (  12.8281694  12.8281694   2.5656339  )
        64           Si  tau(  64) = (  12.8281694  12.8281694  12.8281694  )

     number of k points=     1  gaussian smearing, width (Ry)=  0.0010
                       cart. coord. in units 2pi/alat
        k(    1) = (   0.0000000   0.0000000   0.0000000), wk =   2.0000000

     Dense  grid:  1168287 G-vectors     FFT dimensions: ( 135, 135, 135)

     Smooth grid:   104415 G-vectors     FFT dimensions: (  60,  60,  60)

     Estimated max dynamical RAM per process >     337.63 MB

     Estimated total dynamical RAM >       5.28 GB

     Self-consistent Calculation

     iteration #  1     ecut=    20.00 Ry     beta=0.70
     ethr =  1.00E-02
Average number of iterations:     4.000000
     Ef =   0.4647087569138080

     total energy              =    -818.34414671 Ry
     Harris-Foulkes estimate   =       0.00000000 Ry
     estimated scf accuracy    <       2.07615203 Ry

     End of self-consistent calculation

     convergence NOT achieved after   2 iterations: stopping
--------------------------------------------------------------------------------------------------------------------------------------------
name                                                                 count      total        min        max    average    self (%)
--------------------------------------------------------------------------------------------------------------------------------------------
Eigenproblem_elpa1|diag                                           :      6     4.0145     0.0795     2.5337     0.6691     100.00
Eigenproblem_elpa:transform_back                                  :      2     0.1197     0.0017     0.1180     0.0598     100.00
Eigenproblem_elpa:transform_to_standard                           :      2     1.3301     0.0945     1.2355     0.6650     100.00
qe|electrons                                                      :      1    19.7777    19.7777    19.7777    19.7777       0.00
qe|electrons|init                                                 :      1    12.8005    12.8005    12.8005    12.8005       4.66
qe|electrons|scf                                                  :      1     6.9285     6.9285     6.9285     6.9285       2.12
qe|init_run|hinit0                                                :      1     2.5454     2.5454     2.5454     2.5454       0.41
qe|init_run|hinit0|init_us_1                                      :      1     0.5395     0.5395     0.5395     0.5395     100.00
qe|init_run|hinit0|struc_fact                                     :      1     1.9951     1.9951     1.9951     1.9951     100.00
qe|mix                                                            :      1     0.0691     0.0691     0.0691     0.0691     100.00
qe|run_pwscf                                                      :      1    35.6698    35.6698    35.6698    35.6698       3.76
qe|run_pwscf|electrons                                            :      1    19.7791    19.7791    19.7791    19.7791       0.01
qe|run_pwscf|init_run                                             :      1     5.1692     5.1692     5.1692     5.1692      50.76
qe|run_pwscf|setup                                                :      1     0.5980     0.5980     0.5980     0.5980     100.00
qe|run_pwscf|setup_sirius                                         :      1     8.7837     8.7837     8.7837     8.7837       4.17
qe|v_ha                                                           :      2     0.0755     0.0173     0.0582     0.0377     100.00
qe|v_xc                                                           :      2     0.1519     0.0269     0.1250     0.0760     100.00
qe|veff                                                           :      1     0.4261     0.4261     0.4261     0.4261      14.08
sddk::FFT3D::FFT3D                                                :      2     0.4875     0.0009     0.4866     0.2437     100.00
sddk::FFT3D::prepare                                              :      7     0.0526     0.0000     0.0339     0.0075       0.24
sddk::FFT3D::prepare|cpu                                          :      7     0.0525     0.0000     0.0338     0.0075     100.00
sddk::FFT3D::transform                                            :    118     1.0667     0.0016     0.2030     0.0090       1.31
sddk::FFT3D::transform_xy                                         :    118     0.5435     0.0013     0.1045     0.0046     100.00
sddk::FFT3D::transform_z                                          :    118     0.5092     0.0003     0.1124     0.0043       0.43
sddk::FFT3D::transform_z_serial                                   :    118     0.3143     0.0003     0.1121     0.0027     100.00
sddk::FFT3D::transform_z|comm                                     :     10     0.1926     0.0020     0.0899     0.0193     100.00
sddk::Gvec::find_gvec_shells                                      :      3     0.2221     0.0149     0.1803     0.0740     100.00
sddk::Gvec::init                                                  :      3     0.7425     0.0222     0.6494     0.2475      70.08
sddk::matrix_storage::remap_backward                              :      6     0.8314     0.0002     0.6010     0.1386     100.00
sddk::matrix_storage::remap_forward                               :      7     0.1320     0.0006     0.0601     0.0189     100.00
sddk::remap_gvec_to_shells|init                                   :      1     0.1638     0.1638     0.1638     0.1638     100.00
sddk::wave_functions::inner                                       :     16     0.5831     0.0008     0.1282     0.0364     100.00
sddk::wave_functions::orthogonalize                               :      4     0.8342     0.0095     0.5081     0.2086       0.56
sddk::wave_functions::orthogonalize|potrf                         :      4     0.2507     0.0002     0.2322     0.0627     100.00
sddk::wave_functions::orthogonalize|trtri                         :      4     0.1905     0.0001     0.1884     0.0476     100.00
sddk::wave_functions::transform                                   :     22     0.3685     0.0007     0.0668     0.0168      96.98
sddk::wave_functions::transform|init                              :     22     0.0111     0.0000     0.0038     0.0005     100.00
sirius::Atom_type::init                                           :      2     0.1575     0.0243     0.1333     0.0788     100.00
sirius::Augmentation_operator::generate_pw_coeffs                 :      2     3.0462     1.4345     1.6117     1.5231     100.00
sirius::Band::apply_h_o                                           :      6     2.1915     0.0485     1.0137     0.3652       1.42
sirius::Band::diag_pseudo_potential                               :      1     4.2766     4.2766     4.2766     4.2766       0.17
sirius::Band::diag_pseudo_potential_davidson                      :      1     4.2672     4.2672     4.2672     4.2672       0.10
sirius::Band::diag_pseudo_potential_davidson|evp                  :      5     1.5774     0.0796     0.5854     0.3155       0.03
sirius::Band::diag_pseudo_potential_davidson|iter                 :      1     4.0229     4.0229     4.0229     4.0229       1.00
sirius::Band::diag_pseudo_potential_davidson|update_phi           :      1     0.0130     0.0130     0.0130     0.0130       0.27
sirius::Band::get_o_diag                                          :      1     0.2276     0.2276     0.2276     0.2276     100.00
sirius::Band::initialize_subspace                                 :      1     5.9508     5.9508     5.9508     5.9508       7.79
sirius::Band::initialize_subspace|kp                              :      1     5.2666     5.2666     5.2666     5.2666       0.15
sirius::Band::initialize_subspace|kp|wf                           :      1     0.0676     0.0676     0.0676     0.0676     100.00
sirius::Band::residuals                                           :      5     0.2046     0.0000     0.0898     0.0409       7.38
sirius::Band::residuals_aux                                       :      4     0.0740     0.0002     0.0600     0.0185     100.00
sirius::Band::set_subspace_mtrx                                   :      8     0.4099     0.0020     0.1283     0.0512       1.83
sirius::Band::solve_for_kset                                      :      1     4.3378     4.3378     4.3378     4.3378       0.21
sirius::Beta_projectors::Beta_projectors                          :      1     0.0191     0.0191     0.0191     0.0191       0.97
sirius::Beta_projectors::generate_pw_coefs_t                      :      1     0.0189     0.0189     0.0189     0.0189     100.00
sirius::Beta_projectors_base::generate                            :      7     0.2219     0.0293     0.0446     0.0317     100.00
sirius::Beta_projectors_base::inner                               :      7     0.4350     0.0047     0.3214     0.0621     100.00
sirius::DFT_ground_state::ewald_energy                            :      1     0.2181     0.2181     0.2181     0.2181     100.00
sirius::Density::add_k_point_contribution_dm                      :      1     0.0550     0.0550     0.0550     0.0550      14.36
sirius::Density::add_k_point_contribution_rg                      :      1     0.1132     0.1132     0.1132     0.1132      64.91
sirius::Density::augment                                          :      1     1.2263     1.2263     1.2263     1.2263       0.03
sirius::Density::generate_pseudo_core_charge_density              :      1     0.7314     0.7314     0.7314     0.7314       3.05
sirius::Density::generate_rho_aug                                 :      1     1.2259     1.2259     1.2259     1.2259      32.17
sirius::Density::generate_rho_aug|gemm                            :      2     0.6365     0.2713     0.3652     0.3183     100.00
sirius::Density::generate_rho_aug|phase_fac                       :      2     0.1026     0.0138     0.0888     0.0513     100.00
sirius::Density::generate_rho_aug|sum                             :      2     0.0924     0.0461     0.0463     0.0462     100.00
sirius::Density::generate_valence                                 :      1     1.8609     1.8609     1.8609     1.8609      22.20
sirius::Density::initial_density                                  :      1     0.6696     0.6696     0.6696     0.6696       3.25
sirius::K_point::generate_gkvec                                   :      1     0.1169     0.1169     0.1169     0.1169      81.02
sirius::K_point::initialize                                       :      1     0.1422     0.1422     0.1422     0.1422       4.09
sirius::Local_operator::apply_h                                   :      6     1.2671     0.0049     0.7007     0.2112       4.08
sirius::Local_operator::prepare                                   :      4     0.2776     0.0022     0.2207     0.0694       8.36
sirius::Non_local_operator::apply                                 :     12     0.2835     0.0023     0.1474     0.0236     100.00
sirius::Periodic_function::inner                                  :      3     0.0430     0.0116     0.0157     0.0143      63.57
sirius::Potential::Potential                                      :      1     3.4122     3.4122     3.4122     3.4122       2.91
sirius::Potential::generate_D_operator_matrix                     :      2     0.8593     0.2166     0.6427     0.4297     100.00
sirius::Potential::generate_local_potential                       :      1     3.3128     3.3128     3.3128     3.3128       0.02
sirius::Radial_integrals|aug                                      :      1     0.5484     0.5484     0.5484     0.5484     100.00
sirius::Radial_integrals|beta                                     :      2     2.5223     1.2117     1.3105     1.2611     100.00
sirius::Radial_integrals|rho_core_pseudo                          :      1     0.3098     0.3098     0.3098     0.3098     100.00
sirius::Radial_integrals|rho_pseudo                               :      1     0.2601     0.2601     0.2601     0.2601     100.00
sirius::Radial_integrals|vloc                                     :      1     3.0059     3.0059     3.0059     3.0059     100.00
sirius::Simulation_context::initialize                            :      1     8.2702     8.2702     8.2702     8.2702       0.36
sirius::Simulation_context_base::initialize                       :      1     5.1943     5.1943     5.1943     5.1943       9.11
sirius::Simulation_context_base::make_periodic_function           :      3     0.4328     0.0953     0.1986     0.1443     100.00
sirius::Smooth_periodic_function::fft_transform                   :     11     0.8551     0.0158     0.2604     0.0777      28.94
sirius::Smooth_periodic_function::gather_f_pw                     :      7     0.2114     0.0109     0.0551     0.0302     100.00
sirius::Unit_cell::find_nearest_neighbours                        :      1     0.0658     0.0658     0.0658     0.0658     100.00
sirius::Unit_cell::initialize                                     :      1     0.2448     0.2448     0.2448     0.2448       8.78
sirius_api::sirius_get_pw_coeffs                                  :      4     0.1637     0.0244     0.0562     0.0409      36.60
sirius_api::sirius_set_pw_coeffs                                  :      5     0.4113     0.0336     0.1491     0.0823      66.68
--------------------------------------------------------------------------------------------------------------------------------------------
+global_timer (   36.1678s, 1.38 % of self, 100.00 % of total)
|--qe|run_pwscf (   35.6698s, 98.62 %) 
qe|electrons (   19.7777s, 0.00 % of self, 54.68 % of total)
|--qe|electrons|init (   12.8005s, 64.72 %) 
|--qe|electrons|scf (    6.9285s, 35.03 %) 
|--sirius_api::sirius_set_pw_coeffs (    0.0486s, 0.25 %) 
qe|electrons|init (   12.8005s, 4.66 % of self, 35.39 % of total)
|--sirius::Band::initialize_subspace (    5.9508s, 46.49 %) 
|--sirius::Potential::Potential (    3.4122s, 26.66 %) 
|--sirius::Density::generate_pseudo_core_charge_density (    0.7314s, 5.71 %) 
|--sirius::Density::initial_density (    0.6696s, 5.23 %) 
|--sirius::Potential::generate_D_operator_matrix (    0.6427s, 5.02 %) 
|--sirius_api::sirius_set_pw_coeffs (    0.2574s, 2.01 %) 
|--sirius::DFT_ground_state::ewald_energy (    0.2181s, 1.70 %) 
|--sirius_api::sirius_get_pw_coeffs (    0.1344s, 1.05 %) 
|--qe|v_xc (    0.1250s, 0.98 %) 
|--qe|v_ha (    0.0582s, 0.45 %) 
|--sirius::Band::Band (    0.0047s, 0.04 %) 
qe|electrons|scf (    6.9285s, 2.12 % of self, 19.16 % of total)
|--sirius::Band::solve_for_kset (    4.3378s, 62.61 %) 
|--sirius::Density::generate_valence (    1.8609s, 26.86 %) 
|--qe|veff (    0.4261s, 6.15 %) 
|--qe|mix (    0.0691s, 1.00 %) 
|--sirius::Smooth_periodic_function::fft_transform (    0.0311s, 0.45 %) 
|--sirius_api::sirius_get_pw_coeffs (    0.0293s, 0.42 %) 
|--sirius::Periodic_function::inner (    0.0274s, 0.39 %) 
qe|init_run|hinit0 (    2.5454s, 0.41 % of self, 7.04 % of total)
|--qe|init_run|hinit0|struc_fact (    1.9951s, 78.38 %) 
|--qe|init_run|hinit0|init_us_1 (    0.5395s, 21.19 %) 
|--qe|init_run|hinit0|init_igk (    0.0004s, 0.01 %) 
|--qe|init_run|hinit0|init_vloc (    0.0000s, 0.00 %) 
|--qe|init_run|hinit0|init_at_1 (    0.0000s, 0.00 %) 
|--qe|init_run|hinit0|setlocal (    0.0000s, 0.00 %) 
|--qe|init_run|hinit0|set_rhoc (    0.0000s, 0.00 %) 
qe|run_pwscf (   35.6698s, 3.76 % of self, 98.62 % of total)
|--qe|run_pwscf|electrons (   19.7791s, 55.45 %) 
|--qe|run_pwscf|setup_sirius (    8.7837s, 24.63 %) 
|--qe|run_pwscf|init_run (    5.1692s, 14.49 %) 
|--qe|run_pwscf|setup (    0.5980s, 1.68 %) 
qe|run_pwscf|electrons (   19.7791s, 0.01 % of self, 54.69 % of total)
|--qe|electrons (   19.7777s, 99.99 %) 
qe|run_pwscf|init_run (    5.1692s, 50.76 % of self, 14.29 % of total)
|--qe|init_run|hinit0 (    2.5454s, 49.24 %) 
|--qe|init_run|potinit (    0.0000s, 0.00 %) 
|--qe|init_run|newd (    0.0000s, 0.00 %) 
qe|run_pwscf|setup_sirius (    8.7837s, 4.17 % of self, 24.29 % of total)
|--sirius::Simulation_context::initialize (    8.2702s, 94.15 %) 
|--sirius::K_point::initialize (    0.1422s, 1.62 %) 
|--sirius::K_point_set::add_kpoints (    0.0048s, 0.06 %) 
|--sirius::K_point_set::K_point_set (    0.0000s, 0.00 %) 
qe|veff (    0.4261s, 14.08 % of self, 1.18 % of total)
|--sirius::Potential::generate_D_operator_matrix (    0.2166s, 50.84 %) 
|--sirius_api::sirius_set_pw_coeffs (    0.1053s, 24.71 %) 
|--qe|v_xc (    0.0269s, 6.31 %) 
|--qe|v_ha (    0.0173s, 4.06 %) 
sddk::FFT3D::transform (    1.0667s, 1.31 % of self, 2.95 % of total)
|--sddk::FFT3D::transform_xy (    0.5435s, 50.95 %) 
|--sddk::FFT3D::transform_z (    0.5092s, 47.73 %) 
sddk::FFT3D::transform_z (    0.5092s, 0.43 % of self, 1.41 % of total)
|--sddk::FFT3D::transform_z_serial (    0.3143s, 61.74 %) 
|--sddk::FFT3D::transform_z|comm (    0.1926s, 37.84 %) 
sddk::Gvec::init (    0.7425s, 70.08 % of self, 2.05 % of total)
|--sddk::Gvec::find_gvec_shells (    0.2221s, 29.92 %) 
sddk::wave_functions::orthogonalize (    0.8342s, 0.56 % of self, 2.31 % of total)
|--sddk::wave_functions::orthogonalize|potrf (    0.2507s, 30.06 %) 
|--sddk::wave_functions::transform (    0.2076s, 24.89 %) 
|--sddk::wave_functions::orthogonalize|trtri (    0.1905s, 22.83 %) 
|--sddk::wave_functions::inner (    0.1807s, 21.66 %) 
sddk::wave_functions::transform (    0.3685s, 96.98 % of self, 1.02 % of total)
|--sddk::wave_functions::transform|init (    0.0111s, 3.02 %) 
sirius::Band::apply_h_o (    2.1915s, 1.42 % of self, 6.06 % of total)
|--sirius::Local_operator::apply_h (    1.2671s, 57.82 %) 
|--sirius::Beta_projectors_base::inner (    0.4182s, 19.08 %) 
|--sirius::Non_local_operator::apply (    0.2835s, 12.94 %) 
|--sirius::Beta_projectors_base::generate (    0.1916s, 8.74 %) 
sirius::Band::diag_pseudo_potential (    4.2766s, 0.17 % of self, 11.82 % of total)
|--sirius::Band::diag_pseudo_potential_davidson (    4.2672s, 99.78 %) 
|--sirius::Local_operator::prepare (    0.0022s, 0.05 %) 
|--sddk::FFT3D::prepare (    0.0001s, 0.00 %) 
|--sirius::Non_local_operator::Non_local_operator (    0.0000s, 0.00 %) 
sirius::Band::diag_pseudo_potential_davidson (    4.2672s, 0.10 % of self, 11.80 % of total)
|--sirius::Band::diag_pseudo_potential_davidson|iter (    4.0229s, 94.28 %) 
|--sirius::Band::get_o_diag (    0.2276s, 5.33 %) 
|--sirius::Band::get_h_diag (    0.0074s, 0.17 %) 
|--sirius::Band::diag_pseudo_potential_davidson|wf (    0.0044s, 0.10 %) 
|--sirius::Band::diag_pseudo_potential_davidson|alloc (    0.0006s, 0.01 %) 
|--sirius::Beta_projectors_base::dismiss (    0.0000s, 0.00 %) 
sirius::Band::diag_pseudo_potential_davidson|evp (    1.5774s, 0.03 % of self, 4.36 % of total)
|--Eigenproblem_elpa1|diag (    1.4808s, 93.88 %) 
|--Eigenproblem_elpa:transform_to_standard (    0.0945s, 5.99 %) 
|--Eigenproblem_elpa:transform_back (    0.0017s, 0.10 %) 
sirius::Band::diag_pseudo_potential_davidson|iter (    4.0229s, 1.00 % of self, 11.12 % of total)
|--sirius::Band::diag_pseudo_potential_davidson|evp (    1.5774s, 39.21 %) 
|--sirius::Band::apply_h_o (    1.1777s, 29.28 %) 
|--sddk::wave_functions::orthogonalize (    0.8342s, 20.74 %) 
|--sirius::Band::residuals (    0.2046s, 5.09 %) 
|--sirius::Band::set_subspace_mtrx (    0.1759s, 4.37 %) 
|--sirius::Band::diag_pseudo_potential_davidson|update_phi (    0.0130s, 0.32 %) 
sirius::Band::initialize_subspace (    5.9508s, 7.79 % of self, 16.45 % of total)
|--sirius::Band::initialize_subspace|kp (    5.2666s, 88.50 %) 
|--sirius::Local_operator::prepare (    0.2207s, 3.71 %) 
sirius::Band::initialize_subspace|kp (    5.2666s, 0.15 % of self, 14.56 % of total)
|--Eigenproblem_elpa1|diag (    2.5337s, 48.11 %) 
|--Eigenproblem_elpa:transform_to_standard (    1.2355s, 23.46 %) 
|--sirius::Band::apply_h_o (    1.0137s, 19.25 %) 
|--sirius::Band::set_subspace_mtrx (    0.2339s, 4.44 %) 
|--Eigenproblem_elpa:transform_back (    0.1180s, 2.24 %) 
|--sirius::Band::initialize_subspace|kp|wf (    0.0676s, 1.28 %) 
|--sddk::wave_functions::transform (    0.0324s, 0.62 %) 
|--sddk::FFT3D::prepare (    0.0122s, 0.23 %) 
|--sddk::matrix_storage::matrix_storage (    0.0088s, 0.17 %) 
|--sirius::Local_operator::prepare (    0.0027s, 0.05 %) 
|--sirius::Non_local_operator::Non_local_operator (    0.0000s, 0.00 %) 
|--sirius::Beta_projectors_base::prepare (    0.0000s, 0.00 %) 
|--sirius::Beta_projectors_base::dismiss (    0.0000s, 0.00 %) 
sirius::Band::set_subspace_mtrx (    0.4099s, 1.83 % of self, 1.13 % of total)
|--sddk::wave_functions::inner (    0.4023s, 98.17 %) 
sirius::Band::solve_for_kset (    4.3378s, 0.21 % of self, 11.99 % of total)
|--sirius::Band::diag_pseudo_potential (    4.2766s, 98.59 %) 
|--sirius::Local_operator::prepare (    0.0520s, 1.20 %) 
|--sirius::K_point_set::sync_band_energies (    0.0000s, 0.00 %) 
sirius::Density::augment (    1.2263s, 0.03 % of self, 3.39 % of total)
|--sirius::Density::generate_rho_aug (    1.2259s, 99.97 %) 
sirius::Density::generate_pseudo_core_charge_density (    0.7314s, 3.05 % of self, 2.02 % of total)
|--sirius::Radial_integrals|rho_core_pseudo (    0.3098s, 42.35 %) 
|--sirius::Smooth_periodic_function::fft_transform (    0.2604s, 35.61 %) 
|--sirius::Simulation_context_base::make_periodic_function (    0.1389s, 18.99 %) 
sirius::Density::generate_rho_aug (    1.2259s, 32.17 % of self, 3.39 % of total)
|--sirius::Density::generate_rho_aug|gemm (    0.6365s, 51.93 %) 
|--sirius::Density::generate_rho_aug|phase_fac (    0.1026s, 8.37 %) 
|--sirius::Density::generate_rho_aug|sum (    0.0924s, 7.54 %) 
sirius::Density::generate_valence (    1.8609s, 22.20 % of self, 5.15 % of total)
|--sirius::Density::augment (    1.2263s, 65.90 %) 
|--sirius::Density::add_k_point_contribution_rg (    0.1132s, 6.08 %) 
|--sirius::Density::add_k_point_contribution_dm (    0.0550s, 2.96 %) 
|--sirius::Smooth_periodic_function::fft_transform (    0.0263s, 1.42 %) 
|--sirius::Smooth_periodic_function::gather_f_pw (    0.0123s, 0.66 %) 
|--sddk::matrix_storage::remap_forward (    0.0084s, 0.45 %) 
|--sddk::FFT3D::prepare (    0.0062s, 0.34 %) 
sirius::Density::initial_density (    0.6696s, 3.25 % of self, 1.85 % of total)
|--sirius::Smooth_periodic_function::fft_transform (    0.2924s, 43.67 %) 
|--sirius::Radial_integrals|rho_pseudo (    0.2601s, 38.85 %) 
|--sirius::Simulation_context_base::make_periodic_function (    0.0953s, 14.23 %) 
sirius::Local_operator::apply_h (    1.2671s, 4.08 % of self, 3.50 % of total)
|--sddk::matrix_storage::remap_backward (    0.8314s, 65.61 %) 
|--sddk::FFT3D::transform (    0.2605s, 20.56 %) 
|--sddk::matrix_storage::remap_forward (    0.1236s, 9.75 %) 
sirius::Potential::Potential (    3.4122s, 2.91 % of self, 9.43 % of total)
|--sirius::Potential::generate_local_potential (    3.3128s, 97.09 %) 
|--sirius::Potential::init (    0.0000s, 0.00 %) 
sirius::Potential::generate_local_potential (    3.3128s, 0.02 % of self, 9.16 % of total)
|--sirius::Radial_integrals|vloc (    3.0059s, 90.74 %) 
|--sirius::Simulation_context_base::make_periodic_function (    0.1986s, 5.99 %) 
|--sirius::Smooth_periodic_function::fft_transform (    0.1078s, 3.25 %) 
sirius::Simulation_context::initialize (    8.2702s, 0.36 % of self, 22.87 % of total)
|--sirius::Simulation_context_base::initialize (    5.1943s, 62.81 %) 
|--sirius::Augmentation_operator::generate_pw_coeffs (    3.0462s, 36.83 %) 
sirius::Simulation_context_base::initialize (    5.1943s, 9.11 % of self, 14.36 % of total)
|--sirius::Radial_integrals|beta (    2.5223s, 48.56 %) 
|--sddk::Gvec::init (    0.7203s, 13.87 %) 
|--sirius::Radial_integrals|aug (    0.5484s, 10.56 %) 
|--sddk::FFT3D::FFT3D (    0.4875s, 9.38 %) 
|--sirius::Unit_cell::initialize (    0.2448s, 4.71 %) 
|--sddk::remap_gvec_to_shells|init (    0.1638s, 3.15 %) 
|--sddk::FFT3D::prepare (    0.0339s, 0.65 %) 
sirius::Smooth_periodic_function::fft_transform (    0.8551s, 28.94 % of self, 2.36 % of total)
|--sddk::FFT3D::transform (    0.6076s, 71.06 %) 
sirius_api::sirius_set_pw_coeffs (    0.4113s, 66.68 % of self, 1.14 % of total)
|--sirius::Smooth_periodic_function::fft_transform (    0.1370s, 33.32 %) 

     init_run     :      9.86s CPU      5.16s WALL (       1 calls)

     Called by init_run:

     Called by electrons:
     v_of_rho     :      0.43s CPU      0.24s WALL (       2 calls)
     mix_rho      :      0.12s CPU      0.06s WALL (       1 calls)
     sym_rho      :      0.04s CPU      0.04s WALL (       1 calls)

     Called by c_bands:

     Called by sum_band:

     Called by *egterg:

     Called by h_psi:

     General routines
     fft          :      0.70s CPU      0.53s WALL (      12 calls)

     Parallel routines
     fft_scatter  :      0.40s CPU      0.23s WALL (      12 calls)

     PWSCF        :  1m 5.40s CPU     0m37.01s WALL


   This run was terminated on:  10: 9:32  22Sep2017            

=------------------------------------------------------------------------------=
   JOB DONE.
=------------------------------------------------------------------------------=
Note: The following floating-point exceptions are signalling: IEEE_INVALID_FLAG IEEE_DIVIDE_BY_ZERO IEEE_UNDERFLOW_FLAG IEEE_DENORMAL
STOP 2
Note: The following floating-point exceptions are signalling: IEEE_INVALID_FLAG IEEE_DIVIDE_BY_ZERO IEEE_UNDERFLOW_FLAG IEEE_DENORMAL
STOP 2
Note: The following floating-point exceptions are signalling: IEEE_INVALID_FLAG IEEE_DIVIDE_BY_ZERO IEEE_UNDERFLOW_FLAG IEEE_DENORMAL
STOP 2
Note: The following floating-point exceptions are signalling: IEEE_INVALID_FLAG IEEE_DIVIDE_BY_ZERO IEEE_UNDERFLOW_FLAG IEEE_DENORMAL
STOP 2
Note: The following floating-point exceptions are signalling: IEEE_INVALID_FLAG IEEE_DIVIDE_BY_ZERO IEEE_UNDERFLOW_FLAG IEEE_DENORMAL
STOP 2
Note: The following floating-point exceptions are signalling: IEEE_INVALID_FLAG IEEE_UNDERFLOW_FLAG IEEE_DENORMAL
STOP 2
Note: The following floating-point exceptions are signalling: IEEE_INVALID_FLAG IEEE_DIVIDE_BY_ZERO IEEE_UNDERFLOW_FLAG IEEE_DENORMAL
STOP 2
Note: The following floating-point exceptions are signalling: IEEE_INVALID_FLAG IEEE_DIVIDE_BY_ZERO IEEE_UNDERFLOW_FLAG IEEE_DENORMAL
STOP 2
Note: The following floating-point exceptions are signalling: IEEE_INVALID_FLAG IEEE_DIVIDE_BY_ZERO IEEE_UNDERFLOW_FLAG IEEE_DENORMAL
STOP 2
Note: The following floating-point exceptions are signalling: IEEE_INVALID_FLAG IEEE_UNDERFLOW_FLAG IEEE_DENORMAL
STOP 2
Note: The following floating-point exceptions are signalling: IEEE_INVALID_FLAG IEEE_UNDERFLOW_FLAG IEEE_DENORMAL
STOP 2
Note: The following floating-point exceptions are signalling: IEEE_INVALID_FLAG IEEE_DIVIDE_BY_ZERO IEEE_UNDERFLOW_FLAG IEEE_DENORMAL
STOP 2
Note: The following floating-point exceptions are signalling: IEEE_INVALID_FLAG IEEE_DIVIDE_BY_ZERO IEEE_UNDERFLOW_FLAG IEEE_DENORMAL
STOP 2
Note: The following floating-point exceptions are signalling: IEEE_INVALID_FLAG IEEE_UNDERFLOW_FLAG IEEE_DENORMAL
STOP 2
Note: The following floating-point exceptions are signalling: IEEE_INVALID_FLAG IEEE_UNDERFLOW_FLAG IEEE_DENORMAL
STOP 2
Note: The following floating-point exceptions are signalling: IEEE_INVALID_FLAG IEEE_UNDERFLOW_FLAG IEEE_DENORMAL
STOP 2
srun: error: nid00000: tasks 0-15: Exited with exit code 2
srun: Terminating job step 681667.0
