srun -n 64 -c 1 --unbuffered --hint=nomultithread ../../../../q-e/PW/src/pw.x -i pw.in -ndiag 64 -npool 1

     Program PWSCF v.6.1 starts on 22Sep2017 at 10: 9: 9 

     This program is part of the open-source Quantum ESPRESSO suite
     for quantum simulation of materials; please cite
         "P. Giannozzi et al., J. Phys.:Condens. Matter 21 395502 (2009);
          URL http://www.quantum-espresso.org", 
     in publications or presentations arising from this work. More details at
     http://www.quantum-espresso.org/quote

     Parallel version (MPI & OpenMP), running on      64 processor cores
     Number of MPI processes:                64
     Threads/MPI process:                     1
     R & G space division:  proc/nbgrp/npool/nimage =      64
     Reading input from pw.in
     Message from routine read_cards :
     DEPRECATED: no units specified in CELL_PARAMETERS card
SIRIUS 4.8, git hash: 551de771a30cd15b2939e16597f7a14067616a3f

     Current dimensions of program PWSCF are:
     Max number of different atomic species (ntypx) = 10
     Max number of k-points (npk) =  40000
     Max angular momentum in pseudopotentials (lmaxx) =  3

     Subspace diagonalization in iterative solution of the eigenvalue problem:
     one sub-group per band group will be used
     custom distributed-memory algorithm (size of sub-group:  8*  8 procs)


   Info: using nr1, nr2, nr3 values from input

     Parallelization info
     --------------------
     sticks:   dense  smooth     PW     G-vecs:    dense   smooth      PW
     Min         209      42     10                18251     1630     202
     Max         210      43     11                18256     1633     209
     Sum       13429    2701    673              1168287   104415   13133



     bravais-lattice index     =            0
     lattice parameter (alat)  =       1.0000  a.u.
     unit-cell volume          =    8646.7719 (a.u.)^3
     number of atoms/cell      =           64
     number of atomic types    =            2
     number of electrons       =       266.00
     number of Kohn-Sham states=          160
     kinetic-energy cutoff     =      20.0000  Ry
     charge density cutoff     =     400.0000  Ry
     convergence threshold     =      1.0E-11
     mixing beta               =       0.7000
     number of iterations used =            8  plain     mixing
     Exchange-correlation      = SLA  PZ   NOGX NOGC ( 1  1  0  0 0 0)

     celldm(1)=   1.000000  celldm(2)=   0.000000  celldm(3)=   0.000000
     celldm(4)=   0.000000  celldm(5)=   0.000000  celldm(6)=   0.000000

     crystal axes: (cart. coord. in units of alat)
               a(1) = (  20.525071   0.000000   0.000000 )  
               a(2) = (   0.000000  20.525071   0.000000 )  
               a(3) = (   0.000000   0.000000  20.525071 )  

     reciprocal axes: (cart. coord. in units 2 pi/alat)
               b(1) = (  0.048721  0.000000  0.000000 )  
               b(2) = (  0.000000  0.048721  0.000000 )  
               b(3) = (  0.000000  0.000000  0.048721 )  


     PseudoPot. # 1 for Ge read from file:
     ./ge_lda_v1.4.uspp.F.UPF
     MD5 check sum: bf9d52b59cc8a669818bb2b52e0c2ba0
     Pseudo is Ultrasoft + core correction, Zval = 14.0
     Generated by new atomic code, or converted to UPF format
     Using radial grid of  873 points,  6 beta functions with: 
                l(1) =   0
                l(2) =   0
                l(3) =   1
                l(4) =   1
                l(5) =   2
                l(6) =   2
     Q(r) pseudized with  8 coefficients,  rinner =    1.400   1.400   1.400
                                                       1.400   1.400

     PseudoPot. # 2 for Si read from file:
     ./si_lda_v1.uspp.F.UPF
     MD5 check sum: b5ade7b37ee992b02096e360e546dc2d
     Pseudo is Ultrasoft + core correction, Zval =  4.0
     Generated by new atomic code, or converted to UPF format
     Using radial grid of  899 points,  6 beta functions with: 
                l(1) =   0
                l(2) =   0
                l(3) =   1
                l(4) =   1
                l(5) =   2
                l(6) =   2
     Q(r) pseudized with  8 coefficients,  rinner =    0.900   0.900   0.900
                                                       0.900   0.900

     atomic species   valence    mass     pseudopotential
        Ge            14.00    72.61000     Ge( 1.00)
        Si             4.00    28.08550     Si( 1.00)

     24 Sym. Ops. (no inversion) found



   Cartesian axes

     site n.     atom                  positions (a.u.)
         1           Ge  tau(   1) = (   0.0000000   0.0000000   0.0000000  )
         2           Si  tau(   2) = (   0.0000000   0.0000000  10.2625355  )
         3           Si  tau(   3) = (   0.0000000  10.2625355   0.0000000  )
         4           Si  tau(   4) = (   0.0000000  10.2625355  10.2625355  )
         5           Si  tau(   5) = (  10.2625355   0.0000000   0.0000000  )
         6           Si  tau(   6) = (  10.2625355   0.0000000  10.2625355  )
         7           Si  tau(   7) = (  10.2625355  10.2625355   0.0000000  )
         8           Si  tau(   8) = (  10.2625355  10.2625355  10.2625355  )
         9           Si  tau(   9) = (   0.0000000   5.1312678   5.1312678  )
        10           Si  tau(  10) = (   0.0000000   5.1312678  15.3938033  )
        11           Si  tau(  11) = (   0.0000000  15.3938033   5.1312678  )
        12           Si  tau(  12) = (   0.0000000  15.3938033  15.3938033  )
        13           Si  tau(  13) = (  10.2625355   5.1312678   5.1312678  )
        14           Si  tau(  14) = (  10.2625355   5.1312678  15.3938033  )
        15           Si  tau(  15) = (  10.2625355  15.3938033   5.1312678  )
        16           Si  tau(  16) = (  10.2625355  15.3938033  15.3938033  )
        17           Si  tau(  17) = (   5.1312678   0.0000000   5.1312678  )
        18           Si  tau(  18) = (   5.1312678   0.0000000  15.3938033  )
        19           Si  tau(  19) = (   5.1312678  10.2625355   5.1312678  )
        20           Si  tau(  20) = (   5.1312678  10.2625355  15.3938033  )
        21           Si  tau(  21) = (  15.3938033   0.0000000   5.1312678  )
        22           Si  tau(  22) = (  15.3938033   0.0000000  15.3938033  )
        23           Si  tau(  23) = (  15.3938033  10.2625355   5.1312678  )
        24           Si  tau(  24) = (  15.3938033  10.2625355  15.3938033  )
        25           Si  tau(  25) = (   5.1312678   5.1312678   0.0000000  )
        26           Si  tau(  26) = (   5.1312678   5.1312678  10.2625355  )
        27           Si  tau(  27) = (   5.1312678  15.3938033   0.0000000  )
        28           Si  tau(  28) = (   5.1312678  15.3938033  10.2625355  )
        29           Si  tau(  29) = (  15.3938033   5.1312678   0.0000000  )
        30           Si  tau(  30) = (  15.3938033   5.1312678  10.2625355  )
        31           Si  tau(  31) = (  15.3938033  15.3938033   0.0000000  )
        32           Si  tau(  32) = (  15.3938033  15.3938033  10.2625355  )
        33           Si  tau(  33) = (   7.6969016   7.6969016   2.5656339  )
        34           Si  tau(  34) = (   7.6969016   7.6969016  12.8281694  )
        35           Si  tau(  35) = (   7.6969016  17.9594371   2.5656339  )
        36           Si  tau(  36) = (   7.6969016  17.9594371  12.8281694  )
        37           Si  tau(  37) = (  17.9594371   7.6969016   2.5656339  )
        38           Si  tau(  38) = (  17.9594371   7.6969016  12.8281694  )
        39           Si  tau(  39) = (  17.9594371  17.9594371   2.5656339  )
        40           Si  tau(  40) = (  17.9594371  17.9594371  12.8281694  )
        41           Si  tau(  41) = (   7.6969016   2.5656339   7.6969016  )
        42           Si  tau(  42) = (   7.6969016   2.5656339  17.9594371  )
        43           Si  tau(  43) = (   7.6969016  12.8281694   7.6969016  )
        44           Si  tau(  44) = (   7.6969016  12.8281694  17.9594371  )
        45           Si  tau(  45) = (  17.9594371   2.5656339   7.6969016  )
        46           Si  tau(  46) = (  17.9594371   2.5656339  17.9594371  )
        47           Si  tau(  47) = (  17.9594371  12.8281694   7.6969016  )
        48           Si  tau(  48) = (  17.9594371  12.8281694  17.9594371  )
        49           Si  tau(  49) = (   2.5656339   7.6969016   7.6969016  )
        50           Si  tau(  50) = (   2.5656339   7.6969016  17.9594371  )
        51           Si  tau(  51) = (   2.5656339  17.9594371   7.6969016  )
        52           Si  tau(  52) = (   2.5656339  17.9594371  17.9594371  )
        53           Si  tau(  53) = (  12.8281694   7.6969016   7.6969016  )
        54           Si  tau(  54) = (  12.8281694   7.6969016  17.9594371  )
        55           Si  tau(  55) = (  12.8281694  17.9594371   7.6969016  )
        56           Si  tau(  56) = (  12.8281694  17.9594371  17.9594371  )
        57           Si  tau(  57) = (   2.5656339   2.5656339   2.5656339  )
        58           Si  tau(  58) = (   2.5656339   2.5656339  12.8281694  )
        59           Si  tau(  59) = (   2.5656339  12.8281694   2.5656339  )
        60           Si  tau(  60) = (   2.5656339  12.8281694  12.8281694  )
        61           Si  tau(  61) = (  12.8281694   2.5656339   2.5656339  )
        62           Si  tau(  62) = (  12.8281694   2.5656339  12.8281694  )
        63           Si  tau(  63) = (  12.8281694  12.8281694   2.5656339  )
        64           Si  tau(  64) = (  12.8281694  12.8281694  12.8281694  )

     number of k points=     1  gaussian smearing, width (Ry)=  0.0010
                       cart. coord. in units 2pi/alat
        k(    1) = (   0.0000000   0.0000000   0.0000000), wk =   2.0000000

     Dense  grid:  1168287 G-vectors     FFT dimensions: ( 135, 135, 135)

     Smooth grid:   104415 G-vectors     FFT dimensions: (  60,  60,  60)

     Estimated max dynamical RAM per process >      85.74 MB

     Estimated total dynamical RAM >       5.36 GB

     Self-consistent Calculation

     iteration #  1     ecut=    20.00 Ry     beta=0.70
     ethr =  1.00E-02
Average number of iterations:     4.000000
     Ef =   0.4647087409646259

     total energy              =    -818.34414663 Ry
     Harris-Foulkes estimate   =       0.00000000 Ry
     estimated scf accuracy    <       2.07615324 Ry

     End of self-consistent calculation

     convergence NOT achieved after   2 iterations: stopping
--------------------------------------------------------------------------------------------------------------------------------------------
name                                                                 count      total        min        max    average    self (%)
--------------------------------------------------------------------------------------------------------------------------------------------
Eigenproblem_elpa1|diag                                           :      6     0.9354     0.0254     0.5752     0.1559     100.00
Eigenproblem_elpa:transform_to_standard                           :      2     0.8813     0.0113     0.8700     0.4407     100.00
qe|electrons                                                      :      1    23.9673    23.9673    23.9673    23.9673       0.00
qe|electrons|init                                                 :      1    20.2736    20.2736    20.2736    20.2736       3.70
qe|electrons|scf                                                  :      1     3.6011     3.6011     3.6011     3.6011       2.11
qe|init_run|hinit0                                                :      1     2.2659     2.2659     2.2659     2.2659       0.01
qe|init_run|hinit0|init_us_1                                      :      1     0.2923     0.2923     0.2923     0.2923     100.00
qe|init_run|hinit0|struc_fact                                     :      1     1.9733     1.9733     1.9733     1.9733     100.00
qe|mix                                                            :      1     0.0899     0.0899     0.0899     0.0899     100.00
qe|run_pwscf                                                      :      1    46.7131    46.7131    46.7131    46.7131       3.94
qe|run_pwscf|electrons                                            :      1    23.9684    23.9684    23.9684    23.9684       0.00
qe|run_pwscf|init_run                                             :      1     7.1416     7.1416     7.1416     7.1416      68.27
qe|run_pwscf|setup                                                :      1     0.6903     0.6903     0.6903     0.6903     100.00
qe|run_pwscf|setup_sirius                                         :      1    13.0735    13.0735    13.0735    13.0735       2.70
qe|v_ha                                                           :      2     0.0298     0.0146     0.0152     0.0149     100.00
qe|v_xc                                                           :      2     0.1492     0.0350     0.1143     0.0746     100.00
qe|veff                                                           :      1     0.3444     0.3444     0.3444     0.3444      12.70
sddk::FFT3D::FFT3D                                                :      2     0.4305     0.0008     0.4297     0.2152     100.00
sddk::FFT3D::transform                                            :     48     0.8744     0.0067     0.1539     0.0182       6.83
sddk::FFT3D::transform_xy                                         :     48     0.6103     0.0059     0.1131     0.0127     100.00
sddk::FFT3D::transform_z                                          :     48     0.2044     0.0008     0.0794     0.0043       0.61
sddk::FFT3D::transform_z_serial                                   :     48     0.1796     0.0007     0.0794     0.0037     100.00
sddk::FFT3D::transform_z|comm                                     :     10     0.0235     0.0014     0.0057     0.0024     100.00
sddk::Gvec::find_gvec_shells                                      :      3     0.4192     0.0047     0.3947     0.1397     100.00
sddk::Gvec::init                                                  :      3     0.9100     0.0118     0.8335     0.3033      53.94
sddk::matrix_storage::remap_forward                               :      7     0.0527     0.0003     0.0328     0.0075     100.00
sddk::remap_gvec_to_shells|init                                   :      1     0.1344     0.1344     0.1344     0.1344     100.00
sddk::wave_functions::inner                                       :     16     0.2407     0.0010     0.1351     0.0150     100.00
sddk::wave_functions::orthogonalize                               :      4     0.5761     0.0240     0.4753     0.1440       0.50
sddk::wave_functions::orthogonalize|potrf                         :      4     0.3385     0.0002     0.3307     0.0846     100.00
sddk::wave_functions::orthogonalize|trtri                         :      4     0.1043     0.0001     0.1019     0.0261     100.00
sddk::wave_functions::transform                                   :     22     0.1697     0.0009     0.0290     0.0077      93.03
sddk::wave_functions::transform|init                              :     22     0.0118     0.0000     0.0094     0.0005     100.00
sirius::Atom_type::init                                           :      2     0.0770     0.0174     0.0596     0.0385     100.00
sirius::Augmentation_operator::generate_pw_coeffs                 :      2     3.0121     1.4513     1.5608     1.5060     100.00
sirius::Band::apply_h_o                                           :      6     1.2932     0.0310     0.8329     0.2155       0.91
sirius::Band::diag_pseudo_potential                               :      1     1.6988     1.6988     1.6988     1.6988       0.42
sirius::Band::diag_pseudo_potential_davidson                      :      1     1.6893     1.6893     1.6893     1.6893       0.31
sirius::Band::diag_pseudo_potential_davidson|evp                  :      5     0.3736     0.0387     0.1024     0.0747       0.06
sirius::Band::diag_pseudo_potential_davidson|iter                 :      1     1.6089     1.6089     1.6089     1.6089       0.37
sirius::Band::diag_pseudo_potential_davidson|update_phi           :      1     0.0158     0.0158     0.0158     0.0158       0.21
sirius::Band::get_o_diag                                          :      1     0.0619     0.0619     0.0619     0.0619     100.00
sirius::Band::initialize_subspace                                 :      1     3.9620     3.9620     3.9620     3.9620      30.34
sirius::Band::initialize_subspace|kp                              :      1     2.6012     2.6012     2.6012     2.6012       3.43
sirius::Band::initialize_subspace|kp|wf                           :      1     0.0130     0.0130     0.0130     0.0130     100.00
sirius::Band::residuals                                           :      5     0.1283     0.0000     0.0915     0.0257      57.64
sirius::Band::residuals_aux                                       :      4     0.0143     0.0002     0.0100     0.0036     100.00
sirius::Band::set_subspace_mtrx                                   :      8     0.2348     0.0020     0.1740     0.0293      16.89
sirius::Band::solve_for_kset                                      :      1     1.7763     1.7763     1.7763     1.7763       0.78
sirius::Beta_projectors::Beta_projectors                          :      1     0.0113     0.0113     0.0113     0.0113      49.93
sirius::Beta_projectors_base::generate                            :      7     0.0906     0.0074     0.0445     0.0129     100.00
sirius::Beta_projectors_base::inner                               :      7     0.5383     0.0023     0.4497     0.0769     100.00
sirius::DFT_ground_state::ewald_energy                            :      1     0.0753     0.0753     0.0753     0.0753     100.00
sirius::Density::add_k_point_contribution_dm                      :      1     0.0329     0.0329     0.0329     0.0329      28.18
sirius::Density::add_k_point_contribution_rg                      :      1     0.0285     0.0285     0.0285     0.0285      17.37
sirius::Density::augment                                          :      1     1.0919     1.0919     1.0919     1.0919       0.01
sirius::Density::generate_pseudo_core_charge_density              :      1     1.1897     1.1897     1.1897     1.1897       0.37
sirius::Density::generate_rho_aug                                 :      1     1.0918     1.0918     1.0918     1.0918      34.46
sirius::Density::generate_rho_aug|gemm                            :      2     0.5685     0.1004     0.4682     0.2843     100.00
sirius::Density::generate_rho_aug|phase_fac                       :      2     0.0502     0.0009     0.0493     0.0251     100.00
sirius::Density::generate_rho_aug|sum                             :      2     0.0968     0.0476     0.0492     0.0484     100.00
sirius::Density::generate_valence                                 :      1     1.2536     1.2536     1.2536     1.2536       6.37
sirius::Density::initial_density                                  :      1     1.2086     1.2086     1.2086     1.2086       2.00
sirius::K_point::generate_gkvec                                   :      1     0.0491     0.0491     0.0491     0.0491      75.89
sirius::K_point::initialize                                       :      1     0.0681     0.0681     0.0681     0.0681      10.90
sirius::Local_operator::apply_h                                   :      6     0.3507     0.0162     0.1472     0.0584       8.07
sirius::Local_operator::prepare                                   :      4     0.2269     0.0023     0.1586     0.0567      10.94
sirius::Non_local_operator::apply                                 :     12     0.3255     0.0025     0.1485     0.0271     100.00
sirius::Potential::Potential                                      :      1    11.9817    11.9817    11.9817    11.9817       2.04
sirius::Potential::generate_D_operator_matrix                     :      2     0.5601     0.0891     0.4710     0.2800     100.00
sirius::Potential::generate_local_potential                       :      1    11.7370    11.7370    11.7370    11.7370       0.01
sirius::Radial_integrals|aug                                      :      1     0.2815     0.2815     0.2815     0.2815     100.00
sirius::Radial_integrals|beta                                     :      2     6.9157     3.4205     3.4953     3.4579     100.00
sirius::Radial_integrals|rho_core_pseudo                          :      1     0.9200     0.9200     0.9200     0.9200     100.00
sirius::Radial_integrals|rho_pseudo                               :      1     0.9331     0.9331     0.9331     0.9331     100.00
sirius::Radial_integrals|vloc                                     :      1    11.5198    11.5198    11.5198    11.5198     100.00
sirius::Simulation_context::initialize                            :      1    12.6525    12.6525    12.6525    12.6525       0.53
sirius::Simulation_context_base::initialize                       :      1     9.5733     9.5733     9.5733     9.5733       4.87
sirius::Simulation_context_base::make_periodic_function           :      3     0.3907     0.1004     0.1893     0.1302     100.00
sirius::Smooth_periodic_function::fft_transform                   :     11     0.5905     0.0097     0.1643     0.0537      21.19
sirius::Smooth_periodic_function::gather_f_pw                     :      7     0.3454     0.0036     0.2030     0.0493     100.00
sirius::Unit_cell::find_nearest_neighbours                        :      1     0.2664     0.2664     0.2664     0.2664     100.00
sirius::Unit_cell::initialize                                     :      1     0.4380     0.4380     0.4380     0.4380      21.59
sirius_api::sirius_get_pw_coeffs                                  :      4     0.2790     0.0132     0.2141     0.0697       7.41
sirius_api::sirius_set_pw_coeffs                                  :      5     0.5029     0.0683     0.1368     0.1006      57.68
--------------------------------------------------------------------------------------------------------------------------------------------
+global_timer (   47.4223s, 1.50 % of self, 100.00 % of total)
|--qe|run_pwscf (   46.7131s, 98.50 %) 
qe|electrons (   23.9673s, 0.00 % of self, 50.54 % of total)
|--qe|electrons|init (   20.2736s, 84.59 %) 
|--qe|electrons|scf (    3.6011s, 15.03 %) 
|--sirius_api::sirius_set_pw_coeffs (    0.0924s, 0.39 %) 
qe|electrons|init (   20.2736s, 3.70 % of self, 42.75 % of total)
|--sirius::Potential::Potential (   11.9817s, 59.10 %) 
|--sirius::Band::initialize_subspace (    3.9620s, 19.54 %) 
|--sirius::Density::initial_density (    1.2086s, 5.96 %) 
|--sirius::Density::generate_pseudo_core_charge_density (    1.1897s, 5.87 %) 
|--sirius::Potential::generate_D_operator_matrix (    0.4710s, 2.32 %) 
|--sirius_api::sirius_set_pw_coeffs (    0.2490s, 1.23 %) 
|--sirius_api::sirius_get_pw_coeffs (    0.2490s, 1.23 %) 
|--qe|v_xc (    0.1143s, 0.56 %) 
|--sirius::DFT_ground_state::ewald_energy (    0.0753s, 0.37 %) 
|--qe|v_ha (    0.0146s, 0.07 %) 
|--sirius::Band::Band (    0.0088s, 0.04 %) 
qe|electrons|scf (    3.6011s, 2.11 % of self, 7.59 % of total)
|--sirius::Band::solve_for_kset (    1.7763s, 49.32 %) 
|--sirius::Density::generate_valence (    1.2536s, 34.81 %) 
|--qe|veff (    0.3444s, 9.56 %) 
|--qe|mix (    0.0899s, 2.50 %) 
|--sirius_api::sirius_get_pw_coeffs (    0.0300s, 0.83 %) 
|--sirius::Smooth_periodic_function::fft_transform (    0.0262s, 0.73 %) 
|--sirius::Periodic_function::inner (    0.0046s, 0.13 %) 
qe|init_run|hinit0 (    2.2659s, 0.01 % of self, 4.78 % of total)
|--qe|init_run|hinit0|struc_fact (    1.9733s, 87.09 %) 
|--qe|init_run|hinit0|init_us_1 (    0.2923s, 12.90 %) 
|--qe|init_run|hinit0|init_igk (    0.0002s, 0.01 %) 
|--qe|init_run|hinit0|init_vloc (    0.0000s, 0.00 %) 
|--qe|init_run|hinit0|setlocal (    0.0000s, 0.00 %) 
|--qe|init_run|hinit0|init_at_1 (    0.0000s, 0.00 %) 
|--qe|init_run|hinit0|set_rhoc (    0.0000s, 0.00 %) 
qe|run_pwscf (   46.7131s, 3.94 % of self, 98.50 % of total)
|--qe|run_pwscf|electrons (   23.9684s, 51.31 %) 
|--qe|run_pwscf|setup_sirius (   13.0735s, 27.99 %) 
|--qe|run_pwscf|init_run (    7.1416s, 15.29 %) 
|--qe|run_pwscf|setup (    0.6903s, 1.48 %) 
qe|run_pwscf|electrons (   23.9684s, 0.00 % of self, 50.54 % of total)
|--qe|electrons (   23.9673s, 100.00 %) 
qe|run_pwscf|init_run (    7.1416s, 68.27 % of self, 15.06 % of total)
|--qe|init_run|hinit0 (    2.2659s, 31.73 %) 
|--qe|init_run|potinit (    0.0000s, 0.00 %) 
|--qe|init_run|newd (    0.0000s, 0.00 %) 
qe|run_pwscf|setup_sirius (   13.0735s, 2.70 % of self, 27.57 % of total)
|--sirius::Simulation_context::initialize (   12.6525s, 96.78 %) 
|--sirius::K_point::initialize (    0.0681s, 0.52 %) 
|--sirius::K_point_set::add_kpoints (    0.0001s, 0.00 %) 
|--sirius::K_point_set::K_point_set (    0.0000s, 0.00 %) 
sddk::FFT3D::transform (    0.8744s, 6.83 % of self, 1.84 % of total)
|--sddk::FFT3D::transform_xy (    0.6103s, 69.80 %) 
|--sddk::FFT3D::transform_z (    0.2044s, 23.38 %) 
sddk::Gvec::init (    0.9100s, 53.94 % of self, 1.92 % of total)
|--sddk::Gvec::find_gvec_shells (    0.4192s, 46.06 %) 
sddk::wave_functions::orthogonalize (    0.5761s, 0.50 % of self, 1.21 % of total)
|--sddk::wave_functions::orthogonalize|potrf (    0.3385s, 58.76 %) 
|--sddk::wave_functions::orthogonalize|trtri (    0.1043s, 18.10 %) 
|--sddk::wave_functions::transform (    0.0848s, 14.72 %) 
|--sddk::wave_functions::inner (    0.0456s, 7.92 %) 
sirius::Band::apply_h_o (    1.2932s, 0.91 % of self, 2.73 % of total)
|--sirius::Beta_projectors_base::inner (    0.5224s, 40.40 %) 
|--sirius::Local_operator::apply_h (    0.3507s, 27.12 %) 
|--sirius::Non_local_operator::apply (    0.3255s, 25.17 %) 
|--sirius::Beta_projectors_base::generate (    0.0829s, 6.41 %) 
sirius::Band::diag_pseudo_potential (    1.6988s, 0.42 % of self, 3.58 % of total)
|--sirius::Band::diag_pseudo_potential_davidson (    1.6893s, 99.44 %) 
|--sirius::Local_operator::prepare (    0.0023s, 0.14 %) 
|--sddk::FFT3D::prepare (    0.0000s, 0.00 %) 
|--sirius::Non_local_operator::Non_local_operator (    0.0000s, 0.00 %) 
sirius::Band::diag_pseudo_potential_davidson (    1.6893s, 0.31 % of self, 3.56 % of total)
|--sirius::Band::diag_pseudo_potential_davidson|iter (    1.6089s, 95.24 %) 
|--sirius::Band::get_o_diag (    0.0619s, 3.66 %) 
|--sirius::Band::get_h_diag (    0.0069s, 0.41 %) 
|--sirius::Band::diag_pseudo_potential_davidson|wf (    0.0063s, 0.37 %) 
|--sirius::Band::diag_pseudo_potential_davidson|alloc (    0.0001s, 0.01 %) 
|--sirius::Beta_projectors_base::dismiss (    0.0000s, 0.00 %) 
sirius::Band::diag_pseudo_potential_davidson|iter (    1.6089s, 0.37 % of self, 3.39 % of total)
|--sddk::wave_functions::orthogonalize (    0.5761s, 35.81 %) 
|--sirius::Band::apply_h_o (    0.4603s, 28.61 %) 
|--sirius::Band::diag_pseudo_potential_davidson|evp (    0.3736s, 23.22 %) 
|--sirius::Band::residuals (    0.1283s, 7.98 %) 
|--sirius::Band::set_subspace_mtrx (    0.0487s, 3.03 %) 
|--sirius::Band::diag_pseudo_potential_davidson|update_phi (    0.0158s, 0.98 %) 
sirius::Band::initialize_subspace (    3.9620s, 30.34 % of self, 8.35 % of total)
|--sirius::Band::initialize_subspace|kp (    2.6012s, 65.65 %) 
|--sirius::Local_operator::prepare (    0.1586s, 4.00 %) 
sirius::Band::initialize_subspace|kp (    2.6012s, 3.43 % of self, 5.49 % of total)
|--Eigenproblem_elpa:transform_to_standard (    0.8700s, 33.45 %) 
|--sirius::Band::apply_h_o (    0.8329s, 32.02 %) 
|--Eigenproblem_elpa1|diag (    0.5752s, 22.11 %) 
|--sirius::Band::set_subspace_mtrx (    0.1860s, 7.15 %) 
|--sddk::wave_functions::transform (    0.0290s, 1.11 %) 
|--sirius::Band::initialize_subspace|kp|wf (    0.0130s, 0.50 %) 
|--Eigenproblem_elpa:transform_back (    0.0027s, 0.10 %) 
|--sirius::Local_operator::prepare (    0.0024s, 0.09 %) 
|--sddk::matrix_storage::matrix_storage (    0.0008s, 0.03 %) 
|--sddk::FFT3D::prepare (    0.0000s, 0.00 %) 
|--sirius::Non_local_operator::Non_local_operator (    0.0000s, 0.00 %) 
|--sirius::Beta_projectors_base::prepare (    0.0000s, 0.00 %) 
|--sirius::Beta_projectors_base::dismiss (    0.0000s, 0.00 %) 
sirius::Band::solve_for_kset (    1.7763s, 0.78 % of self, 3.75 % of total)
|--sirius::Band::diag_pseudo_potential (    1.6988s, 95.64 %) 
|--sirius::Local_operator::prepare (    0.0636s, 3.58 %) 
|--sirius::K_point_set::sync_band_energies (    0.0000s, 0.00 %) 
sirius::Density::augment (    1.0919s, 0.01 % of self, 2.30 % of total)
|--sirius::Density::generate_rho_aug (    1.0918s, 99.99 %) 
sirius::Density::generate_pseudo_core_charge_density (    1.1897s, 0.37 % of self, 2.51 % of total)
|--sirius::Radial_integrals|rho_core_pseudo (    0.9200s, 77.33 %) 
|--sirius::Smooth_periodic_function::fft_transform (    0.1643s, 13.81 %) 
|--sirius::Simulation_context_base::make_periodic_function (    0.1011s, 8.49 %) 
sirius::Density::generate_rho_aug (    1.0918s, 34.46 % of self, 2.30 % of total)
|--sirius::Density::generate_rho_aug|gemm (    0.5685s, 52.07 %) 
|--sirius::Density::generate_rho_aug|sum (    0.0968s, 8.87 %) 
|--sirius::Density::generate_rho_aug|phase_fac (    0.0502s, 4.60 %) 
sirius::Density::generate_valence (    1.2536s, 6.37 % of self, 2.64 % of total)
|--sirius::Density::augment (    1.0919s, 87.11 %) 
|--sirius::Density::add_k_point_contribution_dm (    0.0329s, 2.62 %) 
|--sirius::Density::add_k_point_contribution_rg (    0.0285s, 2.28 %) 
|--sirius::Smooth_periodic_function::fft_transform (    0.0097s, 0.77 %) 
|--sddk::matrix_storage::remap_forward (    0.0070s, 0.56 %) 
|--sirius::Smooth_periodic_function::gather_f_pw (    0.0036s, 0.29 %) 
|--sddk::FFT3D::prepare (    0.0001s, 0.01 %) 
sirius::Density::initial_density (    1.2086s, 2.00 % of self, 2.55 % of total)
|--sirius::Radial_integrals|rho_pseudo (    0.9331s, 77.21 %) 
|--sirius::Smooth_periodic_function::fft_transform (    0.1509s, 12.49 %) 
|--sirius::Simulation_context_base::make_periodic_function (    0.1004s, 8.31 %) 
sirius::Potential::Potential (   11.9817s, 2.04 % of self, 25.27 % of total)
|--sirius::Potential::generate_local_potential (   11.7370s, 97.96 %) 
|--sirius::Potential::init (    0.0000s, 0.00 %) 
sirius::Potential::generate_local_potential (   11.7370s, 0.01 % of self, 24.75 % of total)
|--sirius::Radial_integrals|vloc (   11.5198s, 98.15 %) 
|--sirius::Simulation_context_base::make_periodic_function (    0.1893s, 1.61 %) 
|--sirius::Smooth_periodic_function::fft_transform (    0.0266s, 0.23 %) 
sirius::Simulation_context::initialize (   12.6525s, 0.53 % of self, 26.68 % of total)
|--sirius::Simulation_context_base::initialize (    9.5733s, 75.66 %) 
|--sirius::Augmentation_operator::generate_pw_coeffs (    3.0121s, 23.81 %) 
sirius::Simulation_context_base::initialize (    9.5733s, 4.87 % of self, 20.19 % of total)
|--sirius::Radial_integrals|beta (    6.9157s, 72.24 %) 
|--sddk::Gvec::init (    0.8982s, 9.38 %) 
|--sirius::Unit_cell::initialize (    0.4380s, 4.58 %) 
|--sddk::FFT3D::FFT3D (    0.4305s, 4.50 %) 
|--sirius::Radial_integrals|aug (    0.2815s, 2.94 %) 
|--sddk::remap_gvec_to_shells|init (    0.1344s, 1.40 %) 
|--sddk::FFT3D::prepare (    0.0085s, 0.09 %) 
sirius::Smooth_periodic_function::fft_transform (    0.5905s, 21.19 % of self, 1.25 % of total)
|--sddk::FFT3D::transform (    0.4654s, 78.81 %) 
sirius_api::sirius_set_pw_coeffs (    0.5029s, 57.68 % of self, 1.06 % of total)
|--sirius::Smooth_periodic_function::fft_transform (    0.2128s, 42.32 %) 

     init_run     :      5.76s CPU      7.13s WALL (       1 calls)

     Called by init_run:

     Called by electrons:
     v_of_rho     :      0.09s CPU      0.24s WALL (       2 calls)
     mix_rho      :      0.02s CPU      0.08s WALL (       1 calls)
     sym_rho      :      0.02s CPU      0.02s WALL (       1 calls)

     Called by c_bands:

     Called by sum_band:

     Called by *egterg:

     Called by h_psi:

     General routines
     fft          :      0.08s CPU      0.27s WALL (      12 calls)

     Parallel routines
     fft_scatter  :      0.05s CPU      0.07s WALL (      12 calls)

     PWSCF        :    35.51s CPU        48.68s WALL


   This run was terminated on:  10: 9:58  22Sep2017            

=------------------------------------------------------------------------------=
   JOB DONE.
=------------------------------------------------------------------------------=
Note: The following floating-point exceptions are signalling: IEEE_INVALID_FLAG IEEE_DIVIDE_BY_ZERO IEEE_UNDERFLOW_FLAG IEEE_DENORMAL
STOP 2
Note: The following floating-point exceptions are signalling: IEEE_INVALID_FLAG IEEE_DIVIDE_BY_ZERO IEEE_UNDERFLOW_FLAG IEEE_DENORMAL
STOP 2
Note: The following floating-point exceptions are signalling: IEEE_INVALID_FLAG IEEE_DIVIDE_BY_ZERO IEEE_UNDERFLOW_FLAG IEEE_DENORMAL
STOP 2
Note: The following floating-point exceptions are signalling: IEEE_INVALID_FLAG IEEE_DIVIDE_BY_ZERO IEEE_UNDERFLOW_FLAG IEEE_DENORMAL
STOP 2
Note: The following floating-point exceptions are signalling: IEEE_INVALID_FLAG IEEE_DIVIDE_BY_ZERO IEEE_UNDERFLOW_FLAG IEEE_DENORMAL
STOP 2
Note: The following floating-point exceptions are signalling: IEEE_INVALID_FLAG IEEE_DIVIDE_BY_ZERO IEEE_UNDERFLOW_FLAG IEEE_DENORMAL
STOP 2
Note: The following floating-point exceptions are signalling: IEEE_INVALID_FLAG IEEE_DIVIDE_BY_ZERO IEEE_UNDERFLOW_FLAG IEEE_DENORMAL
STOP 2
Note: The following floating-point exceptions are signalling: IEEE_INVALID_FLAG IEEE_DIVIDE_BY_ZERO IEEE_UNDERFLOW_FLAG IEEE_DENORMAL
STOP 2
Note: The following floating-point exceptions are signalling: IEEE_INVALID_FLAG IEEE_DIVIDE_BY_ZERO IEEE_UNDERFLOW_FLAG IEEE_DENORMAL
STOP 2
Note: The following floating-point exceptions are signalling: IEEE_INVALID_FLAG IEEE_DIVIDE_BY_ZERO IEEE_UNDERFLOW_FLAG IEEE_DENORMAL
STOP 2
Note: The following floating-point exceptions are signalling: IEEE_INVALID_FLAG IEEE_DIVIDE_BY_ZERO IEEE_UNDERFLOW_FLAG IEEE_DENORMAL
STOP 2
Note: The following floating-point exceptions are signalling: IEEE_INVALID_FLAG IEEE_DIVIDE_BY_ZERO IEEE_UNDERFLOW_FLAG IEEE_DENORMAL
STOP 2
Note: The following floating-point exceptions are signalling: IEEE_INVALID_FLAG IEEE_DIVIDE_BY_ZERO IEEE_UNDERFLOW_FLAG IEEE_DENORMAL
STOP 2
Note: The following floating-point exceptions are signalling: IEEE_INVALID_FLAG IEEE_DIVIDE_BY_ZERO IEEE_UNDERFLOW_FLAG IEEE_DENORMAL
STOP 2
Note: The following floating-point exceptions are signalling: IEEE_INVALID_FLAG IEEE_DIVIDE_BY_ZERO IEEE_UNDERFLOW_FLAG IEEE_DENORMAL
STOP 2
Note: The following floating-point exceptions are signalling: IEEE_INVALID_FLAG IEEE_UNDERFLOW_FLAG IEEE_DENORMAL
STOP 2
Note: The following floating-point exceptions are signalling: IEEE_INVALID_FLAG IEEE_DIVIDE_BY_ZERO IEEE_UNDERFLOW_FLAG IEEE_DENORMAL
STOP 2
Note: The following floating-point exceptions are signalling: IEEE_INVALID_FLAG IEEE_UNDERFLOW_FLAG IEEE_DENORMAL
STOP 2
Note: The following floating-point exceptions are signalling: IEEE_INVALID_FLAG IEEE_UNDERFLOW_FLAG IEEE_DENORMAL
STOP 2
Note: The following floating-point exceptions are signalling: IEEE_INVALID_FLAG IEEE_DIVIDE_BY_ZERO IEEE_UNDERFLOW_FLAG IEEE_DENORMAL
STOP 2
Note: The following floating-point exceptions are signalling: IEEE_INVALID_FLAG IEEE_DIVIDE_BY_ZERO IEEE_UNDERFLOW_FLAG IEEE_DENORMAL
STOP 2
Note: The following floating-point exceptions are signalling: IEEE_INVALID_FLAG IEEE_UNDERFLOW_FLAG IEEE_DENORMAL
STOP 2
Note: The following floating-point exceptions are signalling: IEEE_INVALID_FLAG IEEE_UNDERFLOW_FLAG IEEE_DENORMAL
STOP 2
Note: The following floating-point exceptions are signalling: IEEE_INVALID_FLAG IEEE_UNDERFLOW_FLAG IEEE_DENORMAL
STOP 2
Note: The following floating-point exceptions are signalling: IEEE_INVALID_FLAG IEEE_DIVIDE_BY_ZERO IEEE_UNDERFLOW_FLAG IEEE_DENORMAL
STOP 2
Note: The following floating-point exceptions are signalling: IEEE_INVALID_FLAG IEEE_UNDERFLOW_FLAG IEEE_DENORMAL
STOP 2
Note: The following floating-point exceptions are signalling: IEEE_INVALID_FLAG IEEE_DIVIDE_BY_ZERO IEEE_UNDERFLOW_FLAG IEEE_DENORMAL
STOP 2
Note: The following floating-point exceptions are signalling: IEEE_INVALID_FLAG IEEE_DIVIDE_BY_ZERO IEEE_UNDERFLOW_FLAG IEEE_DENORMAL
STOP 2
Note: The following floating-point exceptions are signalling: IEEE_INVALID_FLAG IEEE_DIVIDE_BY_ZERO IEEE_UNDERFLOW_FLAG IEEE_DENORMAL
STOP 2
Note: The following floating-point exceptions are signalling: IEEE_INVALID_FLAG IEEE_DIVIDE_BY_ZERO IEEE_UNDERFLOW_FLAG IEEE_DENORMAL
STOP 2
Note: The following floating-point exceptions are signalling: IEEE_INVALID_FLAG IEEE_DIVIDE_BY_ZERO IEEE_UNDERFLOW_FLAG IEEE_DENORMAL
STOP 2
Note: The following floating-point exceptions are signalling: IEEE_INVALID_FLAG IEEE_DIVIDE_BY_ZERO IEEE_UNDERFLOW_FLAG IEEE_DENORMAL
STOP 2
Note: The following floating-point exceptions are signalling: IEEE_INVALID_FLAG IEEE_DIVIDE_BY_ZERO IEEE_UNDERFLOW_FLAG IEEE_DENORMAL
STOP 2
Note: The following floating-point exceptions are signalling: IEEE_INVALID_FLAG IEEE_DIVIDE_BY_ZERO IEEE_UNDERFLOW_FLAG IEEE_DENORMAL
STOP 2
Note: The following floating-point exceptions are signalling: IEEE_INVALID_FLAG IEEE_DIVIDE_BY_ZERO IEEE_UNDERFLOW_FLAG IEEE_DENORMAL
STOP 2
Note: The following floating-point exceptions are signalling: IEEE_INVALID_FLAG IEEE_UNDERFLOW_FLAG IEEE_DENORMAL
STOP 2
Note: The following floating-point exceptions are signalling: IEEE_INVALID_FLAG IEEE_DIVIDE_BY_ZERO IEEE_UNDERFLOW_FLAG IEEE_DENORMAL
STOP 2
Note: The following floating-point exceptions are signalling: IEEE_INVALID_FLAG IEEE_DIVIDE_BY_ZERO IEEE_UNDERFLOW_FLAG IEEE_DENORMAL
STOP 2
Note: The following floating-point exceptions are signalling: IEEE_INVALID_FLAG IEEE_DIVIDE_BY_ZERO IEEE_UNDERFLOW_FLAG IEEE_DENORMAL
STOP 2
Note: The following floating-point exceptions are signalling: IEEE_INVALID_FLAG IEEE_DIVIDE_BY_ZERO IEEE_UNDERFLOW_FLAG IEEE_DENORMAL
STOP 2
Note: The following floating-point exceptions are signalling: IEEE_INVALID_FLAG IEEE_DIVIDE_BY_ZERO IEEE_UNDERFLOW_FLAG IEEE_DENORMAL
STOP 2
Note: The following floating-point exceptions are signalling: IEEE_INVALID_FLAG IEEE_UNDERFLOW_FLAG IEEE_DENORMAL
STOP 2
Note: The following floating-point exceptions are signalling: IEEE_INVALID_FLAG IEEE_UNDERFLOW_FLAG IEEE_DENORMAL
STOP 2
Note: The following floating-point exceptions are signalling: IEEE_INVALID_FLAG IEEE_DIVIDE_BY_ZERO IEEE_UNDERFLOW_FLAG IEEE_DENORMAL
STOP 2
Note: The following floating-point exceptions are signalling: IEEE_INVALID_FLAG IEEE_DIVIDE_BY_ZERO IEEE_UNDERFLOW_FLAG IEEE_DENORMAL
STOP 2
Note: The following floating-point exceptions are signalling: IEEE_INVALID_FLAG IEEE_UNDERFLOW_FLAG IEEE_DENORMAL
STOP 2
Note: The following floating-point exceptions are signalling: IEEE_INVALID_FLAG IEEE_UNDERFLOW_FLAG IEEE_DENORMAL
STOP 2
Note: The following floating-point exceptions are signalling: IEEE_INVALID_FLAG IEEE_DIVIDE_BY_ZERO IEEE_UNDERFLOW_FLAG IEEE_DENORMAL
STOP 2
Note: The following floating-point exceptions are signalling: IEEE_INVALID_FLAG IEEE_DIVIDE_BY_ZERO IEEE_UNDERFLOW_FLAG IEEE_DENORMAL
STOP 2
Note: The following floating-point exceptions are signalling: IEEE_INVALID_FLAG IEEE_DIVIDE_BY_ZERO IEEE_UNDERFLOW_FLAG IEEE_DENORMAL
STOP 2
Note: The following floating-point exceptions are signalling: IEEE_INVALID_FLAG IEEE_DIVIDE_BY_ZERO IEEE_UNDERFLOW_FLAG IEEE_DENORMAL
STOP 2
Note: The following floating-point exceptions are signalling: IEEE_INVALID_FLAG IEEE_UNDERFLOW_FLAG IEEE_DENORMAL
STOP 2
Note: The following floating-point exceptions are signalling: IEEE_INVALID_FLAG IEEE_UNDERFLOW_FLAG IEEE_DENORMAL
STOP 2
Note: The following floating-point exceptions are signalling: IEEE_INVALID_FLAG IEEE_DIVIDE_BY_ZERO IEEE_UNDERFLOW_FLAG IEEE_DENORMAL
STOP 2
Note: The following floating-point exceptions are signalling: IEEE_INVALID_FLAG IEEE_DIVIDE_BY_ZERO IEEE_UNDERFLOW_FLAG IEEE_DENORMAL
STOP 2
Note: The following floating-point exceptions are signalling: IEEE_INVALID_FLAG IEEE_UNDERFLOW_FLAG IEEE_DENORMAL
STOP 2
Note: The following floating-point exceptions are signalling: IEEE_INVALID_FLAG IEEE_UNDERFLOW_FLAG IEEE_DENORMAL
STOP 2
Note: The following floating-point exceptions are signalling: IEEE_INVALID_FLAG IEEE_DIVIDE_BY_ZERO IEEE_UNDERFLOW_FLAG IEEE_DENORMAL
STOP 2
Note: The following floating-point exceptions are signalling: IEEE_INVALID_FLAG IEEE_DIVIDE_BY_ZERO IEEE_UNDERFLOW_FLAG IEEE_DENORMAL
STOP 2
Note: The following floating-point exceptions are signalling: IEEE_INVALID_FLAG IEEE_UNDERFLOW_FLAG IEEE_DENORMAL
STOP 2
Note: The following floating-point exceptions are signalling: IEEE_INVALID_FLAG IEEE_UNDERFLOW_FLAG IEEE_DENORMAL
STOP 2
Note: The following floating-point exceptions are signalling: IEEE_INVALID_FLAG IEEE_UNDERFLOW_FLAG IEEE_DENORMAL
STOP 2
Note: The following floating-point exceptions are signalling: IEEE_INVALID_FLAG IEEE_UNDERFLOW_FLAG IEEE_DENORMAL
STOP 2
Note: The following floating-point exceptions are signalling: IEEE_INVALID_FLAG IEEE_UNDERFLOW_FLAG IEEE_DENORMAL
STOP 2
srun: error: nid00001: tasks 0-63: Exited with exit code 2
srun: Terminating job step 681668.0
